+ 0.1 0 1 tcp 40 ------- 0 0.0 1.0 0 0
- 0.1 0 1 tcp 40 ------- 0 0.0 1.0 0 0
r 0.110032 0 1 tcp 40 ------- 0 0.0 1.0 0 0
+ 0.110032 1 0 ack 40 ------- 0 1.0 0.0 0 1
- 0.110032 1 0 ack 40 ------- 0 1.0 0.0 0 1
r 0.120064 1 0 ack 40 ------- 0 1.0 0.0 0 1
+ 0.120064 0 1 tcp 1040 ------- 0 0.0 1.0 1 2
- 0.120064 0 1 tcp 1040 ------- 0 0.0 1.0 1 2
+ 0.120064 0 1 tcp 1040 ------- 0 0.0 1.0 2 3
- 0.120896 0 1 tcp 1040 ------- 0 0.0 1.0 2 3
r 0.130896 0 1 tcp 1040 ------- 0 0.0 1.0 1 2
+ 0.130896 1 0 ack 40 ------- 0 1.0 0.0 1 4
- 0.130896 1 0 ack 40 ------- 0 1.0 0.0 1 4
r 0.131728 0 1 tcp 1040 ------- 0 0.0 1.0 2 3
+ 0.131728 1 0 ack 40 ------- 0 1.0 0.0 2 5
- 0.131728 1 0 ack 40 ------- 0 1.0 0.0 2 5
r 0.140928 1 0 ack 40 ------- 0 1.0 0.0 1 4
+ 0.140928 0 1 tcp 1040 ------- 0 0.0 1.0 3 6
- 0.140928 0 1 tcp 1040 ------- 0 0.0 1.0 3 6
+ 0.140928 0 1 tcp 1040 ------- 0 0.0 1.0 4 7
r 0.14176 1 0 ack 40 ------- 0 1.0 0.0 2 5
+ 0.14176 0 1 tcp 1040 ------- 0 0.0 1.0 5 8
+ 0.14176 0 1 tcp 1040 ------- 0 0.0 1.0 6 9
- 0.14176 0 1 tcp 1040 ------- 0 0.0 1.0 4 7
- 0.142592 0 1 tcp 1040 ------- 0 0.0 1.0 5 8
- 0.143424 0 1 tcp 1040 ------- 0 0.0 1.0 6 9
r 0.15176 0 1 tcp 1040 ------- 0 0.0 1.0 3 6
+ 0.15176 1 0 ack 40 ------- 0 1.0 0.0 3 10
- 0.15176 1 0 ack 40 ------- 0 1.0 0.0 3 10
r 0.152592 0 1 tcp 1040 ------- 0 0.0 1.0 4 7
+ 0.152592 1 0 ack 40 ------- 0 1.0 0.0 4 11
- 0.152592 1 0 ack 40 ------- 0 1.0 0.0 4 11
r 0.153424 0 1 tcp 1040 ------- 0 0.0 1.0 5 8
+ 0.153424 1 0 ack 40 ------- 0 1.0 0.0 5 12
- 0.153424 1 0 ack 40 ------- 0 1.0 0.0 5 12
r 0.154256 0 1 tcp 1040 ------- 0 0.0 1.0 6 9
+ 0.154256 1 0 ack 40 ------- 0 1.0 0.0 6 13
- 0.154256 1 0 ack 40 ------- 0 1.0 0.0 6 13
r 0.161792 1 0 ack 40 ------- 0 1.0 0.0 3 10
+ 0.161792 0 1 tcp 1040 ------- 0 0.0 1.0 7 14
- 0.161792 0 1 tcp 1040 ------- 0 0.0 1.0 7 14
+ 0.161792 0 1 tcp 1040 ------- 0 0.0 1.0 8 15
r 0.162624 1 0 ack 40 ------- 0 1.0 0.0 4 11
+ 0.162624 0 1 tcp 1040 ------- 0 0.0 1.0 9 16
+ 0.162624 0 1 tcp 1040 ------- 0 0.0 1.0 10 17
- 0.162624 0 1 tcp 1040 ------- 0 0.0 1.0 8 15
r 0.163456 1 0 ack 40 ------- 0 1.0 0.0 5 12
+ 0.163456 0 1 tcp 1040 ------- 0 0.0 1.0 11 18
+ 0.163456 0 1 tcp 1040 ------- 0 0.0 1.0 12 19
- 0.163456 0 1 tcp 1040 ------- 0 0.0 1.0 9 16
r 0.164288 1 0 ack 40 ------- 0 1.0 0.0 6 13
+ 0.164288 0 1 tcp 1040 ------- 0 0.0 1.0 13 20
+ 0.164288 0 1 tcp 1040 ------- 0 0.0 1.0 14 21
- 0.164288 0 1 tcp 1040 ------- 0 0.0 1.0 10 17
- 0.16512 0 1 tcp 1040 ------- 0 0.0 1.0 11 18
- 0.165952 0 1 tcp 1040 ------- 0 0.0 1.0 12 19
- 0.166784 0 1 tcp 1040 ------- 0 0.0 1.0 13 20
- 0.167616 0 1 tcp 1040 ------- 0 0.0 1.0 14 21
r 0.172624 0 1 tcp 1040 ------- 0 0.0 1.0 7 14
+ 0.172624 1 0 ack 40 ------- 0 1.0 0.0 7 22
- 0.172624 1 0 ack 40 ------- 0 1.0 0.0 7 22
r 0.173456 0 1 tcp 1040 ------- 0 0.0 1.0 8 15
+ 0.173456 1 0 ack 40 ------- 0 1.0 0.0 8 23
- 0.173456 1 0 ack 40 ------- 0 1.0 0.0 8 23
r 0.174288 0 1 tcp 1040 ------- 0 0.0 1.0 9 16
+ 0.174288 1 0 ack 40 ------- 0 1.0 0.0 9 24
- 0.174288 1 0 ack 40 ------- 0 1.0 0.0 9 24
r 0.17512 0 1 tcp 1040 ------- 0 0.0 1.0 10 17
+ 0.17512 1 0 ack 40 ------- 0 1.0 0.0 10 25
- 0.17512 1 0 ack 40 ------- 0 1.0 0.0 10 25
r 0.175952 0 1 tcp 1040 ------- 0 0.0 1.0 11 18
+ 0.175952 1 0 ack 40 ------- 0 1.0 0.0 11 26
- 0.175952 1 0 ack 40 ------- 0 1.0 0.0 11 26
r 0.176784 0 1 tcp 1040 ------- 0 0.0 1.0 12 19
+ 0.176784 1 0 ack 40 ------- 0 1.0 0.0 12 27
- 0.176784 1 0 ack 40 ------- 0 1.0 0.0 12 27
r 0.177616 0 1 tcp 1040 ------- 0 0.0 1.0 13 20
+ 0.177616 1 0 ack 40 ------- 0 1.0 0.0 13 28
- 0.177616 1 0 ack 40 ------- 0 1.0 0.0 13 28
r 0.178448 0 1 tcp 1040 ------- 0 0.0 1.0 14 21
+ 0.178448 1 0 ack 40 ------- 0 1.0 0.0 14 29
- 0.178448 1 0 ack 40 ------- 0 1.0 0.0 14 29
r 0.182656 1 0 ack 40 ------- 0 1.0 0.0 7 22
+ 0.182656 0 1 tcp 1040 ------- 0 0.0 1.0 15 30
- 0.182656 0 1 tcp 1040 ------- 0 0.0 1.0 15 30
+ 0.182656 0 1 tcp 1040 ------- 0 0.0 1.0 16 31
r 0.183488 1 0 ack 40 ------- 0 1.0 0.0 8 23
+ 0.183488 0 1 tcp 1040 ------- 0 0.0 1.0 17 32
+ 0.183488 0 1 tcp 1040 ------- 0 0.0 1.0 18 33
- 0.183488 0 1 tcp 1040 ------- 0 0.0 1.0 16 31
r 0.18432 1 0 ack 40 ------- 0 1.0 0.0 9 24
+ 0.18432 0 1 tcp 1040 ------- 0 0.0 1.0 19 34
+ 0.18432 0 1 tcp 1040 ------- 0 0.0 1.0 20 35
- 0.18432 0 1 tcp 1040 ------- 0 0.0 1.0 17 32
r 0.185152 1 0 ack 40 ------- 0 1.0 0.0 10 25
+ 0.185152 0 1 tcp 1040 ------- 0 0.0 1.0 21 36
+ 0.185152 0 1 tcp 1040 ------- 0 0.0 1.0 22 37
- 0.185152 0 1 tcp 1040 ------- 0 0.0 1.0 18 33
r 0.185984 1 0 ack 40 ------- 0 1.0 0.0 11 26
+ 0.185984 0 1 tcp 1040 ------- 0 0.0 1.0 23 38
+ 0.185984 0 1 tcp 1040 ------- 0 0.0 1.0 24 39
- 0.185984 0 1 tcp 1040 ------- 0 0.0 1.0 19 34
r 0.186816 1 0 ack 40 ------- 0 1.0 0.0 12 27
+ 0.186816 0 1 tcp 1040 ------- 0 0.0 1.0 25 40
+ 0.186816 0 1 tcp 1040 ------- 0 0.0 1.0 26 41
- 0.186816 0 1 tcp 1040 ------- 0 0.0 1.0 20 35
r 0.187648 1 0 ack 40 ------- 0 1.0 0.0 13 28
+ 0.187648 0 1 tcp 1040 ------- 0 0.0 1.0 27 42
+ 0.187648 0 1 tcp 1040 ------- 0 0.0 1.0 28 43
- 0.187648 0 1 tcp 1040 ------- 0 0.0 1.0 21 36
r 0.18848 1 0 ack 40 ------- 0 1.0 0.0 14 29
+ 0.18848 0 1 tcp 1040 ------- 0 0.0 1.0 29 44
+ 0.18848 0 1 tcp 1040 ------- 0 0.0 1.0 30 45
- 0.18848 0 1 tcp 1040 ------- 0 0.0 1.0 22 37
- 0.189312 0 1 tcp 1040 ------- 0 0.0 1.0 23 38
- 0.190144 0 1 tcp 1040 ------- 0 0.0 1.0 24 39
- 0.190976 0 1 tcp 1040 ------- 0 0.0 1.0 25 40
- 0.191808 0 1 tcp 1040 ------- 0 0.0 1.0 26 41
- 0.19264 0 1 tcp 1040 ------- 0 0.0 1.0 27 42
- 0.193472 0 1 tcp 1040 ------- 0 0.0 1.0 28 43
r 0.193488 0 1 tcp 1040 ------- 0 0.0 1.0 15 30
+ 0.193488 1 0 ack 40 ------- 0 1.0 0.0 15 46
- 0.193488 1 0 ack 40 ------- 0 1.0 0.0 15 46
- 0.194304 0 1 tcp 1040 ------- 0 0.0 1.0 29 44
r 0.19432 0 1 tcp 1040 ------- 0 0.0 1.0 16 31
+ 0.19432 1 0 ack 40 ------- 0 1.0 0.0 16 47
- 0.19432 1 0 ack 40 ------- 0 1.0 0.0 16 47
- 0.195136 0 1 tcp 1040 ------- 0 0.0 1.0 30 45
r 0.195152 0 1 tcp 1040 ------- 0 0.0 1.0 17 32
+ 0.195152 1 0 ack 40 ------- 0 1.0 0.0 17 48
- 0.195152 1 0 ack 40 ------- 0 1.0 0.0 17 48
r 0.195984 0 1 tcp 1040 ------- 0 0.0 1.0 18 33
+ 0.195984 1 0 ack 40 ------- 0 1.0 0.0 18 49
- 0.195984 1 0 ack 40 ------- 0 1.0 0.0 18 49
r 0.196816 0 1 tcp 1040 ------- 0 0.0 1.0 19 34
+ 0.196816 1 0 ack 40 ------- 0 1.0 0.0 19 50
- 0.196816 1 0 ack 40 ------- 0 1.0 0.0 19 50
r 0.197648 0 1 tcp 1040 ------- 0 0.0 1.0 20 35
+ 0.197648 1 0 ack 40 ------- 0 1.0 0.0 20 51
- 0.197648 1 0 ack 40 ------- 0 1.0 0.0 20 51
r 0.19848 0 1 tcp 1040 ------- 0 0.0 1.0 21 36
+ 0.19848 1 0 ack 40 ------- 0 1.0 0.0 21 52
- 0.19848 1 0 ack 40 ------- 0 1.0 0.0 21 52
r 0.199312 0 1 tcp 1040 ------- 0 0.0 1.0 22 37
+ 0.199312 1 0 ack 40 ------- 0 1.0 0.0 22 53
- 0.199312 1 0 ack 40 ------- 0 1.0 0.0 22 53
r 0.200144 0 1 tcp 1040 ------- 0 0.0 1.0 23 38
+ 0.200144 1 0 ack 40 ------- 0 1.0 0.0 23 54
- 0.200144 1 0 ack 40 ------- 0 1.0 0.0 23 54
r 0.200976 0 1 tcp 1040 ------- 0 0.0 1.0 24 39
+ 0.200976 1 0 ack 40 ------- 0 1.0 0.0 24 55
- 0.200976 1 0 ack 40 ------- 0 1.0 0.0 24 55
r 0.201808 0 1 tcp 1040 ------- 0 0.0 1.0 25 40
+ 0.201808 1 0 ack 40 ------- 0 1.0 0.0 25 56
- 0.201808 1 0 ack 40 ------- 0 1.0 0.0 25 56
r 0.20264 0 1 tcp 1040 ------- 0 0.0 1.0 26 41
+ 0.20264 1 0 ack 40 ------- 0 1.0 0.0 26 57
- 0.20264 1 0 ack 40 ------- 0 1.0 0.0 26 57
r 0.203472 0 1 tcp 1040 ------- 0 0.0 1.0 27 42
+ 0.203472 1 0 ack 40 ------- 0 1.0 0.0 27 58
- 0.203472 1 0 ack 40 ------- 0 1.0 0.0 27 58
r 0.20352 1 0 ack 40 ------- 0 1.0 0.0 15 46
+ 0.20352 0 1 tcp 1040 ------- 0 0.0 1.0 31 59
- 0.20352 0 1 tcp 1040 ------- 0 0.0 1.0 31 59
+ 0.20352 0 1 tcp 1040 ------- 0 0.0 1.0 32 60
r 0.204304 0 1 tcp 1040 ------- 0 0.0 1.0 28 43
+ 0.204304 1 0 ack 40 ------- 0 1.0 0.0 28 61
- 0.204304 1 0 ack 40 ------- 0 1.0 0.0 28 61
r 0.204352 1 0 ack 40 ------- 0 1.0 0.0 16 47
+ 0.204352 0 1 tcp 1040 ------- 0 0.0 1.0 33 62
+ 0.204352 0 1 tcp 1040 ------- 0 0.0 1.0 34 63
- 0.204352 0 1 tcp 1040 ------- 0 0.0 1.0 32 60
r 0.205136 0 1 tcp 1040 ------- 0 0.0 1.0 29 44
+ 0.205136 1 0 ack 40 ------- 0 1.0 0.0 29 64
- 0.205136 1 0 ack 40 ------- 0 1.0 0.0 29 64
r 0.205184 1 0 ack 40 ------- 0 1.0 0.0 17 48
+ 0.205184 0 1 tcp 1040 ------- 0 0.0 1.0 35 65
+ 0.205184 0 1 tcp 1040 ------- 0 0.0 1.0 36 66
- 0.205184 0 1 tcp 1040 ------- 0 0.0 1.0 33 62
r 0.205968 0 1 tcp 1040 ------- 0 0.0 1.0 30 45
+ 0.205968 1 0 ack 40 ------- 0 1.0 0.0 30 67
- 0.205968 1 0 ack 40 ------- 0 1.0 0.0 30 67
r 0.206016 1 0 ack 40 ------- 0 1.0 0.0 18 49
+ 0.206016 0 1 tcp 1040 ------- 0 0.0 1.0 37 68
+ 0.206016 0 1 tcp 1040 ------- 0 0.0 1.0 38 69
- 0.206016 0 1 tcp 1040 ------- 0 0.0 1.0 34 63
r 0.206848 1 0 ack 40 ------- 0 1.0 0.0 19 50
+ 0.206848 0 1 tcp 1040 ------- 0 0.0 1.0 39 70
- 0.206848 0 1 tcp 1040 ------- 0 0.0 1.0 35 65
r 0.20768 1 0 ack 40 ------- 0 1.0 0.0 20 51
+ 0.20768 0 1 tcp 1040 ------- 0 0.0 1.0 40 71
- 0.20768 0 1 tcp 1040 ------- 0 0.0 1.0 36 66
r 0.208512 1 0 ack 40 ------- 0 1.0 0.0 21 52
+ 0.208512 0 1 tcp 1040 ------- 0 0.0 1.0 41 72
- 0.208512 0 1 tcp 1040 ------- 0 0.0 1.0 37 68
r 0.209344 1 0 ack 40 ------- 0 1.0 0.0 22 53
+ 0.209344 0 1 tcp 1040 ------- 0 0.0 1.0 42 73
- 0.209344 0 1 tcp 1040 ------- 0 0.0 1.0 38 69
r 0.210176 1 0 ack 40 ------- 0 1.0 0.0 23 54
+ 0.210176 0 1 tcp 1040 ------- 0 0.0 1.0 43 74
- 0.210176 0 1 tcp 1040 ------- 0 0.0 1.0 39 70
r 0.211008 1 0 ack 40 ------- 0 1.0 0.0 24 55
+ 0.211008 0 1 tcp 1040 ------- 0 0.0 1.0 44 75
- 0.211008 0 1 tcp 1040 ------- 0 0.0 1.0 40 71
r 0.21184 1 0 ack 40 ------- 0 1.0 0.0 25 56
+ 0.21184 0 1 tcp 1040 ------- 0 0.0 1.0 45 76
- 0.21184 0 1 tcp 1040 ------- 0 0.0 1.0 41 72
r 0.212672 1 0 ack 40 ------- 0 1.0 0.0 26 57
+ 0.212672 0 1 tcp 1040 ------- 0 0.0 1.0 46 77
- 0.212672 0 1 tcp 1040 ------- 0 0.0 1.0 42 73
r 0.213504 1 0 ack 40 ------- 0 1.0 0.0 27 58
+ 0.213504 0 1 tcp 1040 ------- 0 0.0 1.0 47 78
- 0.213504 0 1 tcp 1040 ------- 0 0.0 1.0 43 74
r 0.214336 1 0 ack 40 ------- 0 1.0 0.0 28 61
+ 0.214336 0 1 tcp 1040 ------- 0 0.0 1.0 48 79
- 0.214336 0 1 tcp 1040 ------- 0 0.0 1.0 44 75
r 0.214352 0 1 tcp 1040 ------- 0 0.0 1.0 31 59
+ 0.214352 1 0 ack 40 ------- 0 1.0 0.0 31 80
- 0.214352 1 0 ack 40 ------- 0 1.0 0.0 31 80
r 0.215168 1 0 ack 40 ------- 0 1.0 0.0 29 64
+ 0.215168 0 1 tcp 1040 ------- 0 0.0 1.0 49 81
- 0.215168 0 1 tcp 1040 ------- 0 0.0 1.0 45 76
r 0.215184 0 1 tcp 1040 ------- 0 0.0 1.0 32 60
+ 0.215184 1 0 ack 40 ------- 0 1.0 0.0 32 82
- 0.215184 1 0 ack 40 ------- 0 1.0 0.0 32 82
r 0.216 1 0 ack 40 ------- 0 1.0 0.0 30 67
+ 0.216 0 1 tcp 1040 ------- 0 0.0 1.0 50 83
- 0.216 0 1 tcp 1040 ------- 0 0.0 1.0 46 77
r 0.216016 0 1 tcp 1040 ------- 0 0.0 1.0 33 62
+ 0.216016 1 0 ack 40 ------- 0 1.0 0.0 33 84
- 0.216016 1 0 ack 40 ------- 0 1.0 0.0 33 84
- 0.216832 0 1 tcp 1040 ------- 0 0.0 1.0 47 78
r 0.216848 0 1 tcp 1040 ------- 0 0.0 1.0 34 63
+ 0.216848 1 0 ack 40 ------- 0 1.0 0.0 34 85
- 0.216848 1 0 ack 40 ------- 0 1.0 0.0 34 85
- 0.217664 0 1 tcp 1040 ------- 0 0.0 1.0 48 79
r 0.21768 0 1 tcp 1040 ------- 0 0.0 1.0 35 65
+ 0.21768 1 0 ack 40 ------- 0 1.0 0.0 35 86
- 0.21768 1 0 ack 40 ------- 0 1.0 0.0 35 86
- 0.218496 0 1 tcp 1040 ------- 0 0.0 1.0 49 81
r 0.218512 0 1 tcp 1040 ------- 0 0.0 1.0 36 66
+ 0.218512 1 0 ack 40 ------- 0 1.0 0.0 36 87
- 0.218512 1 0 ack 40 ------- 0 1.0 0.0 36 87
- 0.219328 0 1 tcp 1040 ------- 0 0.0 1.0 50 83
r 0.219344 0 1 tcp 1040 ------- 0 0.0 1.0 37 68
+ 0.219344 1 0 ack 40 ------- 0 1.0 0.0 37 88
- 0.219344 1 0 ack 40 ------- 0 1.0 0.0 37 88
r 0.220176 0 1 tcp 1040 ------- 0 0.0 1.0 38 69
+ 0.220176 1 0 ack 40 ------- 0 1.0 0.0 38 89
- 0.220176 1 0 ack 40 ------- 0 1.0 0.0 38 89
r 0.221008 0 1 tcp 1040 ------- 0 0.0 1.0 39 70
+ 0.221008 1 0 ack 40 ------- 0 1.0 0.0 39 90
- 0.221008 1 0 ack 40 ------- 0 1.0 0.0 39 90
r 0.22184 0 1 tcp 1040 ------- 0 0.0 1.0 40 71
+ 0.22184 1 0 ack 40 ------- 0 1.0 0.0 40 91
- 0.22184 1 0 ack 40 ------- 0 1.0 0.0 40 91
r 0.222672 0 1 tcp 1040 ------- 0 0.0 1.0 41 72
+ 0.222672 1 0 ack 40 ------- 0 1.0 0.0 41 92
- 0.222672 1 0 ack 40 ------- 0 1.0 0.0 41 92
r 0.223504 0 1 tcp 1040 ------- 0 0.0 1.0 42 73
+ 0.223504 1 0 ack 40 ------- 0 1.0 0.0 42 93
- 0.223504 1 0 ack 40 ------- 0 1.0 0.0 42 93
r 0.224336 0 1 tcp 1040 ------- 0 0.0 1.0 43 74
+ 0.224336 1 0 ack 40 ------- 0 1.0 0.0 43 94
- 0.224336 1 0 ack 40 ------- 0 1.0 0.0 43 94
r 0.224384 1 0 ack 40 ------- 0 1.0 0.0 31 80
+ 0.224384 0 1 tcp 1040 ------- 0 0.0 1.0 51 95
- 0.224384 0 1 tcp 1040 ------- 0 0.0 1.0 51 95
r 0.225168 0 1 tcp 1040 ------- 0 0.0 1.0 44 75
+ 0.225168 1 0 ack 40 ------- 0 1.0 0.0 44 96
- 0.225168 1 0 ack 40 ------- 0 1.0 0.0 44 96
r 0.225216 1 0 ack 40 ------- 0 1.0 0.0 32 82
+ 0.225216 0 1 tcp 1040 ------- 0 0.0 1.0 52 97
- 0.225216 0 1 tcp 1040 ------- 0 0.0 1.0 52 97
r 0.226 0 1 tcp 1040 ------- 0 0.0 1.0 45 76
+ 0.226 1 0 ack 40 ------- 0 1.0 0.0 45 98
- 0.226 1 0 ack 40 ------- 0 1.0 0.0 45 98
r 0.226048 1 0 ack 40 ------- 0 1.0 0.0 33 84
+ 0.226048 0 1 tcp 1040 ------- 0 0.0 1.0 53 99
- 0.226048 0 1 tcp 1040 ------- 0 0.0 1.0 53 99
r 0.226832 0 1 tcp 1040 ------- 0 0.0 1.0 46 77
+ 0.226832 1 0 ack 40 ------- 0 1.0 0.0 46 100
- 0.226832 1 0 ack 40 ------- 0 1.0 0.0 46 100
r 0.22688 1 0 ack 40 ------- 0 1.0 0.0 34 85
+ 0.22688 0 1 tcp 1040 ------- 0 0.0 1.0 54 101
- 0.22688 0 1 tcp 1040 ------- 0 0.0 1.0 54 101
r 0.227664 0 1 tcp 1040 ------- 0 0.0 1.0 47 78
+ 0.227664 1 0 ack 40 ------- 0 1.0 0.0 47 102
- 0.227664 1 0 ack 40 ------- 0 1.0 0.0 47 102
r 0.227712 1 0 ack 40 ------- 0 1.0 0.0 35 86
+ 0.227712 0 1 tcp 1040 ------- 0 0.0 1.0 55 103
- 0.227712 0 1 tcp 1040 ------- 0 0.0 1.0 55 103
r 0.228496 0 1 tcp 1040 ------- 0 0.0 1.0 48 79
+ 0.228496 1 0 ack 40 ------- 0 1.0 0.0 48 104
- 0.228496 1 0 ack 40 ------- 0 1.0 0.0 48 104
r 0.228544 1 0 ack 40 ------- 0 1.0 0.0 36 87
+ 0.228544 0 1 tcp 1040 ------- 0 0.0 1.0 56 105
- 0.228544 0 1 tcp 1040 ------- 0 0.0 1.0 56 105
r 0.229328 0 1 tcp 1040 ------- 0 0.0 1.0 49 81
+ 0.229328 1 0 ack 40 ------- 0 1.0 0.0 49 106
- 0.229328 1 0 ack 40 ------- 0 1.0 0.0 49 106
r 0.229376 1 0 ack 40 ------- 0 1.0 0.0 37 88
+ 0.229376 0 1 tcp 1040 ------- 0 0.0 1.0 57 107
- 0.229376 0 1 tcp 1040 ------- 0 0.0 1.0 57 107
r 0.23016 0 1 tcp 1040 ------- 0 0.0 1.0 50 83
+ 0.23016 1 0 ack 40 ------- 0 1.0 0.0 50 108
- 0.23016 1 0 ack 40 ------- 0 1.0 0.0 50 108
r 0.230208 1 0 ack 40 ------- 0 1.0 0.0 38 89
+ 0.230208 0 1 tcp 1040 ------- 0 0.0 1.0 58 109
- 0.230208 0 1 tcp 1040 ------- 0 0.0 1.0 58 109
r 0.23104 1 0 ack 40 ------- 0 1.0 0.0 39 90
+ 0.23104 0 1 tcp 1040 ------- 0 0.0 1.0 59 110
- 0.23104 0 1 tcp 1040 ------- 0 0.0 1.0 59 110
r 0.231872 1 0 ack 40 ------- 0 1.0 0.0 40 91
+ 0.231872 0 1 tcp 1040 ------- 0 0.0 1.0 60 111
- 0.231872 0 1 tcp 1040 ------- 0 0.0 1.0 60 111
r 0.232704 1 0 ack 40 ------- 0 1.0 0.0 41 92
+ 0.232704 0 1 tcp 1040 ------- 0 0.0 1.0 61 112
- 0.232704 0 1 tcp 1040 ------- 0 0.0 1.0 61 112
r 0.233536 1 0 ack 40 ------- 0 1.0 0.0 42 93
+ 0.233536 0 1 tcp 1040 ------- 0 0.0 1.0 62 113
- 0.233536 0 1 tcp 1040 ------- 0 0.0 1.0 62 113
r 0.234368 1 0 ack 40 ------- 0 1.0 0.0 43 94
+ 0.234368 0 1 tcp 1040 ------- 0 0.0 1.0 63 114
- 0.234368 0 1 tcp 1040 ------- 0 0.0 1.0 63 114
r 0.2352 1 0 ack 40 ------- 0 1.0 0.0 44 96
+ 0.2352 0 1 tcp 1040 ------- 0 0.0 1.0 64 115
- 0.2352 0 1 tcp 1040 ------- 0 0.0 1.0 64 115
r 0.235216 0 1 tcp 1040 ------- 0 0.0 1.0 51 95
+ 0.235216 1 0 ack 40 ------- 0 1.0 0.0 51 116
- 0.235216 1 0 ack 40 ------- 0 1.0 0.0 51 116
r 0.236032 1 0 ack 40 ------- 0 1.0 0.0 45 98
+ 0.236032 0 1 tcp 1040 ------- 0 0.0 1.0 65 117
- 0.236032 0 1 tcp 1040 ------- 0 0.0 1.0 65 117
r 0.236048 0 1 tcp 1040 ------- 0 0.0 1.0 52 97
+ 0.236048 1 0 ack 40 ------- 0 1.0 0.0 52 118
- 0.236048 1 0 ack 40 ------- 0 1.0 0.0 52 118
r 0.236864 1 0 ack 40 ------- 0 1.0 0.0 46 100
+ 0.236864 0 1 tcp 1040 ------- 0 0.0 1.0 66 119
- 0.236864 0 1 tcp 1040 ------- 0 0.0 1.0 66 119
r 0.23688 0 1 tcp 1040 ------- 0 0.0 1.0 53 99
+ 0.23688 1 0 ack 40 ------- 0 1.0 0.0 53 120
- 0.23688 1 0 ack 40 ------- 0 1.0 0.0 53 120
r 0.237696 1 0 ack 40 ------- 0 1.0 0.0 47 102
+ 0.237696 0 1 tcp 1040 ------- 0 0.0 1.0 67 121
- 0.237696 0 1 tcp 1040 ------- 0 0.0 1.0 67 121
r 0.237712 0 1 tcp 1040 ------- 0 0.0 1.0 54 101
+ 0.237712 1 0 ack 40 ------- 0 1.0 0.0 54 122
- 0.237712 1 0 ack 40 ------- 0 1.0 0.0 54 122
r 0.238528 1 0 ack 40 ------- 0 1.0 0.0 48 104
+ 0.238528 0 1 tcp 1040 ------- 0 0.0 1.0 68 123
- 0.238528 0 1 tcp 1040 ------- 0 0.0 1.0 68 123
r 0.238544 0 1 tcp 1040 ------- 0 0.0 1.0 55 103
+ 0.238544 1 0 ack 40 ------- 0 1.0 0.0 55 124
- 0.238544 1 0 ack 40 ------- 0 1.0 0.0 55 124
r 0.23936 1 0 ack 40 ------- 0 1.0 0.0 49 106
+ 0.23936 0 1 tcp 1040 ------- 0 0.0 1.0 69 125
- 0.23936 0 1 tcp 1040 ------- 0 0.0 1.0 69 125
r 0.239376 0 1 tcp 1040 ------- 0 0.0 1.0 56 105
+ 0.239376 1 0 ack 40 ------- 0 1.0 0.0 56 126
- 0.239376 1 0 ack 40 ------- 0 1.0 0.0 56 126
r 0.240192 1 0 ack 40 ------- 0 1.0 0.0 50 108
+ 0.240192 0 1 tcp 1040 ------- 0 0.0 1.0 70 127
- 0.240192 0 1 tcp 1040 ------- 0 0.0 1.0 70 127
r 0.240208 0 1 tcp 1040 ------- 0 0.0 1.0 57 107
+ 0.240208 1 0 ack 40 ------- 0 1.0 0.0 57 128
- 0.240208 1 0 ack 40 ------- 0 1.0 0.0 57 128
r 0.24104 0 1 tcp 1040 ------- 0 0.0 1.0 58 109
+ 0.24104 1 0 ack 40 ------- 0 1.0 0.0 58 129
- 0.24104 1 0 ack 40 ------- 0 1.0 0.0 58 129
r 0.241872 0 1 tcp 1040 ------- 0 0.0 1.0 59 110
+ 0.241872 1 0 ack 40 ------- 0 1.0 0.0 59 130
- 0.241872 1 0 ack 40 ------- 0 1.0 0.0 59 130
r 0.242704 0 1 tcp 1040 ------- 0 0.0 1.0 60 111
+ 0.242704 1 0 ack 40 ------- 0 1.0 0.0 60 131
- 0.242704 1 0 ack 40 ------- 0 1.0 0.0 60 131
r 0.243536 0 1 tcp 1040 ------- 0 0.0 1.0 61 112
+ 0.243536 1 0 ack 40 ------- 0 1.0 0.0 61 132
- 0.243536 1 0 ack 40 ------- 0 1.0 0.0 61 132
r 0.244368 0 1 tcp 1040 ------- 0 0.0 1.0 62 113
+ 0.244368 1 0 ack 40 ------- 0 1.0 0.0 62 133
- 0.244368 1 0 ack 40 ------- 0 1.0 0.0 62 133
r 0.2452 0 1 tcp 1040 ------- 0 0.0 1.0 63 114
+ 0.2452 1 0 ack 40 ------- 0 1.0 0.0 63 134
- 0.2452 1 0 ack 40 ------- 0 1.0 0.0 63 134
r 0.245248 1 0 ack 40 ------- 0 1.0 0.0 51 116
+ 0.245248 0 1 tcp 1040 ------- 0 0.0 1.0 71 135
- 0.245248 0 1 tcp 1040 ------- 0 0.0 1.0 71 135
r 0.246032 0 1 tcp 1040 ------- 0 0.0 1.0 64 115
+ 0.246032 1 0 ack 40 ------- 0 1.0 0.0 64 136
- 0.246032 1 0 ack 40 ------- 0 1.0 0.0 64 136
r 0.24608 1 0 ack 40 ------- 0 1.0 0.0 52 118
+ 0.24608 0 1 tcp 1040 ------- 0 0.0 1.0 72 137
- 0.24608 0 1 tcp 1040 ------- 0 0.0 1.0 72 137
r 0.246864 0 1 tcp 1040 ------- 0 0.0 1.0 65 117
+ 0.246864 1 0 ack 40 ------- 0 1.0 0.0 65 138
- 0.246864 1 0 ack 40 ------- 0 1.0 0.0 65 138
r 0.246912 1 0 ack 40 ------- 0 1.0 0.0 53 120
+ 0.246912 0 1 tcp 1040 ------- 0 0.0 1.0 73 139
- 0.246912 0 1 tcp 1040 ------- 0 0.0 1.0 73 139
r 0.247696 0 1 tcp 1040 ------- 0 0.0 1.0 66 119
+ 0.247696 1 0 ack 40 ------- 0 1.0 0.0 66 140
- 0.247696 1 0 ack 40 ------- 0 1.0 0.0 66 140
r 0.247744 1 0 ack 40 ------- 0 1.0 0.0 54 122
+ 0.247744 0 1 tcp 1040 ------- 0 0.0 1.0 74 141
- 0.247744 0 1 tcp 1040 ------- 0 0.0 1.0 74 141
r 0.248528 0 1 tcp 1040 ------- 0 0.0 1.0 67 121
+ 0.248528 1 0 ack 40 ------- 0 1.0 0.0 67 142
- 0.248528 1 0 ack 40 ------- 0 1.0 0.0 67 142
r 0.248576 1 0 ack 40 ------- 0 1.0 0.0 55 124
+ 0.248576 0 1 tcp 1040 ------- 0 0.0 1.0 75 143
- 0.248576 0 1 tcp 1040 ------- 0 0.0 1.0 75 143
r 0.24936 0 1 tcp 1040 ------- 0 0.0 1.0 68 123
+ 0.24936 1 0 ack 40 ------- 0 1.0 0.0 68 144
- 0.24936 1 0 ack 40 ------- 0 1.0 0.0 68 144
r 0.249408 1 0 ack 40 ------- 0 1.0 0.0 56 126
+ 0.249408 0 1 tcp 1040 ------- 0 0.0 1.0 76 145
- 0.249408 0 1 tcp 1040 ------- 0 0.0 1.0 76 145
r 0.250192 0 1 tcp 1040 ------- 0 0.0 1.0 69 125
+ 0.250192 1 0 ack 40 ------- 0 1.0 0.0 69 146
- 0.250192 1 0 ack 40 ------- 0 1.0 0.0 69 146
r 0.25024 1 0 ack 40 ------- 0 1.0 0.0 57 128
+ 0.25024 0 1 tcp 1040 ------- 0 0.0 1.0 77 147
- 0.25024 0 1 tcp 1040 ------- 0 0.0 1.0 77 147
r 0.251024 0 1 tcp 1040 ------- 0 0.0 1.0 70 127
+ 0.251024 1 0 ack 40 ------- 0 1.0 0.0 70 148
- 0.251024 1 0 ack 40 ------- 0 1.0 0.0 70 148
r 0.251072 1 0 ack 40 ------- 0 1.0 0.0 58 129
+ 0.251072 0 1 tcp 1040 ------- 0 0.0 1.0 78 149
- 0.251072 0 1 tcp 1040 ------- 0 0.0 1.0 78 149
r 0.251904 1 0 ack 40 ------- 0 1.0 0.0 59 130
+ 0.251904 0 1 tcp 1040 ------- 0 0.0 1.0 79 150
- 0.251904 0 1 tcp 1040 ------- 0 0.0 1.0 79 150
r 0.252736 1 0 ack 40 ------- 0 1.0 0.0 60 131
+ 0.252736 0 1 tcp 1040 ------- 0 0.0 1.0 80 151
- 0.252736 0 1 tcp 1040 ------- 0 0.0 1.0 80 151
r 0.253568 1 0 ack 40 ------- 0 1.0 0.0 61 132
+ 0.253568 0 1 tcp 1040 ------- 0 0.0 1.0 81 152
- 0.253568 0 1 tcp 1040 ------- 0 0.0 1.0 81 152
r 0.2544 1 0 ack 40 ------- 0 1.0 0.0 62 133
+ 0.2544 0 1 tcp 1040 ------- 0 0.0 1.0 82 153
- 0.2544 0 1 tcp 1040 ------- 0 0.0 1.0 82 153
r 0.255232 1 0 ack 40 ------- 0 1.0 0.0 63 134
+ 0.255232 0 1 tcp 1040 ------- 0 0.0 1.0 83 154
- 0.255232 0 1 tcp 1040 ------- 0 0.0 1.0 83 154
r 0.256064 1 0 ack 40 ------- 0 1.0 0.0 64 136
+ 0.256064 0 1 tcp 1040 ------- 0 0.0 1.0 84 155
- 0.256064 0 1 tcp 1040 ------- 0 0.0 1.0 84 155
r 0.25608 0 1 tcp 1040 ------- 0 0.0 1.0 71 135
+ 0.25608 1 0 ack 40 ------- 0 1.0 0.0 71 156
- 0.25608 1 0 ack 40 ------- 0 1.0 0.0 71 156
r 0.256896 1 0 ack 40 ------- 0 1.0 0.0 65 138
+ 0.256896 0 1 tcp 1040 ------- 0 0.0 1.0 85 157
- 0.256896 0 1 tcp 1040 ------- 0 0.0 1.0 85 157
r 0.256912 0 1 tcp 1040 ------- 0 0.0 1.0 72 137
+ 0.256912 1 0 ack 40 ------- 0 1.0 0.0 72 158
- 0.256912 1 0 ack 40 ------- 0 1.0 0.0 72 158
r 0.257728 1 0 ack 40 ------- 0 1.0 0.0 66 140
+ 0.257728 0 1 tcp 1040 ------- 0 0.0 1.0 86 159
- 0.257728 0 1 tcp 1040 ------- 0 0.0 1.0 86 159
r 0.257744 0 1 tcp 1040 ------- 0 0.0 1.0 73 139
+ 0.257744 1 0 ack 40 ------- 0 1.0 0.0 73 160
- 0.257744 1 0 ack 40 ------- 0 1.0 0.0 73 160
r 0.25856 1 0 ack 40 ------- 0 1.0 0.0 67 142
+ 0.25856 0 1 tcp 1040 ------- 0 0.0 1.0 87 161
- 0.25856 0 1 tcp 1040 ------- 0 0.0 1.0 87 161
r 0.258576 0 1 tcp 1040 ------- 0 0.0 1.0 74 141
+ 0.258576 1 0 ack 40 ------- 0 1.0 0.0 74 162
- 0.258576 1 0 ack 40 ------- 0 1.0 0.0 74 162
r 0.259392 1 0 ack 40 ------- 0 1.0 0.0 68 144
+ 0.259392 0 1 tcp 1040 ------- 0 0.0 1.0 88 163
- 0.259392 0 1 tcp 1040 ------- 0 0.0 1.0 88 163
r 0.259408 0 1 tcp 1040 ------- 0 0.0 1.0 75 143
+ 0.259408 1 0 ack 40 ------- 0 1.0 0.0 75 164
- 0.259408 1 0 ack 40 ------- 0 1.0 0.0 75 164
r 0.260224 1 0 ack 40 ------- 0 1.0 0.0 69 146
+ 0.260224 0 1 tcp 1040 ------- 0 0.0 1.0 89 165
- 0.260224 0 1 tcp 1040 ------- 0 0.0 1.0 89 165
r 0.26024 0 1 tcp 1040 ------- 0 0.0 1.0 76 145
+ 0.26024 1 0 ack 40 ------- 0 1.0 0.0 76 166
- 0.26024 1 0 ack 40 ------- 0 1.0 0.0 76 166
r 0.261056 1 0 ack 40 ------- 0 1.0 0.0 70 148
+ 0.261056 0 1 tcp 1040 ------- 0 0.0 1.0 90 167
- 0.261056 0 1 tcp 1040 ------- 0 0.0 1.0 90 167
r 0.261072 0 1 tcp 1040 ------- 0 0.0 1.0 77 147
+ 0.261072 1 0 ack 40 ------- 0 1.0 0.0 77 168
- 0.261072 1 0 ack 40 ------- 0 1.0 0.0 77 168
r 0.261904 0 1 tcp 1040 ------- 0 0.0 1.0 78 149
+ 0.261904 1 0 ack 40 ------- 0 1.0 0.0 78 169
- 0.261904 1 0 ack 40 ------- 0 1.0 0.0 78 169
r 0.262736 0 1 tcp 1040 ------- 0 0.0 1.0 79 150
+ 0.262736 1 0 ack 40 ------- 0 1.0 0.0 79 170
- 0.262736 1 0 ack 40 ------- 0 1.0 0.0 79 170
r 0.263568 0 1 tcp 1040 ------- 0 0.0 1.0 80 151
+ 0.263568 1 0 ack 40 ------- 0 1.0 0.0 80 171
- 0.263568 1 0 ack 40 ------- 0 1.0 0.0 80 171
r 0.2644 0 1 tcp 1040 ------- 0 0.0 1.0 81 152
+ 0.2644 1 0 ack 40 ------- 0 1.0 0.0 81 172
- 0.2644 1 0 ack 40 ------- 0 1.0 0.0 81 172
r 0.265232 0 1 tcp 1040 ------- 0 0.0 1.0 82 153
+ 0.265232 1 0 ack 40 ------- 0 1.0 0.0 82 173
- 0.265232 1 0 ack 40 ------- 0 1.0 0.0 82 173
r 0.266064 0 1 tcp 1040 ------- 0 0.0 1.0 83 154
+ 0.266064 1 0 ack 40 ------- 0 1.0 0.0 83 174
- 0.266064 1 0 ack 40 ------- 0 1.0 0.0 83 174
r 0.266112 1 0 ack 40 ------- 0 1.0 0.0 71 156
+ 0.266112 0 1 tcp 1040 ------- 0 0.0 1.0 91 175
- 0.266112 0 1 tcp 1040 ------- 0 0.0 1.0 91 175
r 0.266896 0 1 tcp 1040 ------- 0 0.0 1.0 84 155
+ 0.266896 1 0 ack 40 ------- 0 1.0 0.0 84 176
- 0.266896 1 0 ack 40 ------- 0 1.0 0.0 84 176
r 0.266944 1 0 ack 40 ------- 0 1.0 0.0 72 158
+ 0.266944 0 1 tcp 1040 ------- 0 0.0 1.0 92 177
- 0.266944 0 1 tcp 1040 ------- 0 0.0 1.0 92 177
r 0.267728 0 1 tcp 1040 ------- 0 0.0 1.0 85 157
+ 0.267728 1 0 ack 40 ------- 0 1.0 0.0 85 178
- 0.267728 1 0 ack 40 ------- 0 1.0 0.0 85 178
r 0.267776 1 0 ack 40 ------- 0 1.0 0.0 73 160
+ 0.267776 0 1 tcp 1040 ------- 0 0.0 1.0 93 179
- 0.267776 0 1 tcp 1040 ------- 0 0.0 1.0 93 179
r 0.26856 0 1 tcp 1040 ------- 0 0.0 1.0 86 159
+ 0.26856 1 0 ack 40 ------- 0 1.0 0.0 86 180
- 0.26856 1 0 ack 40 ------- 0 1.0 0.0 86 180
r 0.268608 1 0 ack 40 ------- 0 1.0 0.0 74 162
+ 0.268608 0 1 tcp 1040 ------- 0 0.0 1.0 94 181
- 0.268608 0 1 tcp 1040 ------- 0 0.0 1.0 94 181
r 0.269392 0 1 tcp 1040 ------- 0 0.0 1.0 87 161
+ 0.269392 1 0 ack 40 ------- 0 1.0 0.0 87 182
- 0.269392 1 0 ack 40 ------- 0 1.0 0.0 87 182
r 0.26944 1 0 ack 40 ------- 0 1.0 0.0 75 164
+ 0.26944 0 1 tcp 1040 ------- 0 0.0 1.0 95 183
- 0.26944 0 1 tcp 1040 ------- 0 0.0 1.0 95 183
r 0.270224 0 1 tcp 1040 ------- 0 0.0 1.0 88 163
+ 0.270224 1 0 ack 40 ------- 0 1.0 0.0 88 184
- 0.270224 1 0 ack 40 ------- 0 1.0 0.0 88 184
r 0.270272 1 0 ack 40 ------- 0 1.0 0.0 76 166
+ 0.270272 0 1 tcp 1040 ------- 0 0.0 1.0 96 185
- 0.270272 0 1 tcp 1040 ------- 0 0.0 1.0 96 185
r 0.271056 0 1 tcp 1040 ------- 0 0.0 1.0 89 165
+ 0.271056 1 0 ack 40 ------- 0 1.0 0.0 89 186
- 0.271056 1 0 ack 40 ------- 0 1.0 0.0 89 186
r 0.271104 1 0 ack 40 ------- 0 1.0 0.0 77 168
+ 0.271104 0 1 tcp 1040 ------- 0 0.0 1.0 97 187
- 0.271104 0 1 tcp 1040 ------- 0 0.0 1.0 97 187
r 0.271888 0 1 tcp 1040 ------- 0 0.0 1.0 90 167
+ 0.271888 1 0 ack 40 ------- 0 1.0 0.0 90 188
- 0.271888 1 0 ack 40 ------- 0 1.0 0.0 90 188
r 0.271936 1 0 ack 40 ------- 0 1.0 0.0 78 169
+ 0.271936 0 1 tcp 1040 ------- 0 0.0 1.0 98 189
- 0.271936 0 1 tcp 1040 ------- 0 0.0 1.0 98 189
r 0.272768 1 0 ack 40 ------- 0 1.0 0.0 79 170
+ 0.272768 0 1 tcp 1040 ------- 0 0.0 1.0 99 190
- 0.272768 0 1 tcp 1040 ------- 0 0.0 1.0 99 190
r 0.2736 1 0 ack 40 ------- 0 1.0 0.0 80 171
+ 0.2736 0 1 tcp 1040 ------- 0 0.0 1.0 100 191
- 0.2736 0 1 tcp 1040 ------- 0 0.0 1.0 100 191
r 0.274432 1 0 ack 40 ------- 0 1.0 0.0 81 172
+ 0.274432 0 1 tcp 1040 ------- 0 0.0 1.0 101 192
- 0.274432 0 1 tcp 1040 ------- 0 0.0 1.0 101 192
r 0.275264 1 0 ack 40 ------- 0 1.0 0.0 82 173
+ 0.275264 0 1 tcp 1040 ------- 0 0.0 1.0 102 193
- 0.275264 0 1 tcp 1040 ------- 0 0.0 1.0 102 193
r 0.276096 1 0 ack 40 ------- 0 1.0 0.0 83 174
+ 0.276096 0 1 tcp 1040 ------- 0 0.0 1.0 103 194
- 0.276096 0 1 tcp 1040 ------- 0 0.0 1.0 103 194
r 0.276928 1 0 ack 40 ------- 0 1.0 0.0 84 176
+ 0.276928 0 1 tcp 1040 ------- 0 0.0 1.0 104 195
- 0.276928 0 1 tcp 1040 ------- 0 0.0 1.0 104 195
r 0.276944 0 1 tcp 1040 ------- 0 0.0 1.0 91 175
+ 0.276944 1 0 ack 40 ------- 0 1.0 0.0 91 196
- 0.276944 1 0 ack 40 ------- 0 1.0 0.0 91 196
r 0.27776 1 0 ack 40 ------- 0 1.0 0.0 85 178
+ 0.27776 0 1 tcp 1040 ------- 0 0.0 1.0 105 197
- 0.27776 0 1 tcp 1040 ------- 0 0.0 1.0 105 197
r 0.277776 0 1 tcp 1040 ------- 0 0.0 1.0 92 177
+ 0.277776 1 0 ack 40 ------- 0 1.0 0.0 92 198
- 0.277776 1 0 ack 40 ------- 0 1.0 0.0 92 198
r 0.278592 1 0 ack 40 ------- 0 1.0 0.0 86 180
+ 0.278592 0 1 tcp 1040 ------- 0 0.0 1.0 106 199
- 0.278592 0 1 tcp 1040 ------- 0 0.0 1.0 106 199
r 0.278608 0 1 tcp 1040 ------- 0 0.0 1.0 93 179
+ 0.278608 1 0 ack 40 ------- 0 1.0 0.0 93 200
- 0.278608 1 0 ack 40 ------- 0 1.0 0.0 93 200
r 0.279424 1 0 ack 40 ------- 0 1.0 0.0 87 182
+ 0.279424 0 1 tcp 1040 ------- 0 0.0 1.0 107 201
- 0.279424 0 1 tcp 1040 ------- 0 0.0 1.0 107 201
r 0.27944 0 1 tcp 1040 ------- 0 0.0 1.0 94 181
+ 0.27944 1 0 ack 40 ------- 0 1.0 0.0 94 202
- 0.27944 1 0 ack 40 ------- 0 1.0 0.0 94 202
r 0.280256 1 0 ack 40 ------- 0 1.0 0.0 88 184
+ 0.280256 0 1 tcp 1040 ------- 0 0.0 1.0 108 203
- 0.280256 0 1 tcp 1040 ------- 0 0.0 1.0 108 203
r 0.280272 0 1 tcp 1040 ------- 0 0.0 1.0 95 183
+ 0.280272 1 0 ack 40 ------- 0 1.0 0.0 95 204
- 0.280272 1 0 ack 40 ------- 0 1.0 0.0 95 204
r 0.281088 1 0 ack 40 ------- 0 1.0 0.0 89 186
+ 0.281088 0 1 tcp 1040 ------- 0 0.0 1.0 109 205
- 0.281088 0 1 tcp 1040 ------- 0 0.0 1.0 109 205
r 0.281104 0 1 tcp 1040 ------- 0 0.0 1.0 96 185
+ 0.281104 1 0 ack 40 ------- 0 1.0 0.0 96 206
- 0.281104 1 0 ack 40 ------- 0 1.0 0.0 96 206
r 0.28192 1 0 ack 40 ------- 0 1.0 0.0 90 188
+ 0.28192 0 1 tcp 1040 ------- 0 0.0 1.0 110 207
- 0.28192 0 1 tcp 1040 ------- 0 0.0 1.0 110 207
r 0.281936 0 1 tcp 1040 ------- 0 0.0 1.0 97 187
+ 0.281936 1 0 ack 40 ------- 0 1.0 0.0 97 208
- 0.281936 1 0 ack 40 ------- 0 1.0 0.0 97 208
r 0.282768 0 1 tcp 1040 ------- 0 0.0 1.0 98 189
+ 0.282768 1 0 ack 40 ------- 0 1.0 0.0 98 209
- 0.282768 1 0 ack 40 ------- 0 1.0 0.0 98 209
r 0.2836 0 1 tcp 1040 ------- 0 0.0 1.0 99 190
+ 0.2836 1 0 ack 40 ------- 0 1.0 0.0 99 210
- 0.2836 1 0 ack 40 ------- 0 1.0 0.0 99 210
r 0.284432 0 1 tcp 1040 ------- 0 0.0 1.0 100 191
+ 0.284432 1 0 ack 40 ------- 0 1.0 0.0 100 211
- 0.284432 1 0 ack 40 ------- 0 1.0 0.0 100 211
r 0.285264 0 1 tcp 1040 ------- 0 0.0 1.0 101 192
+ 0.285264 1 0 ack 40 ------- 0 1.0 0.0 101 212
- 0.285264 1 0 ack 40 ------- 0 1.0 0.0 101 212
r 0.286096 0 1 tcp 1040 ------- 0 0.0 1.0 102 193
+ 0.286096 1 0 ack 40 ------- 0 1.0 0.0 102 213
- 0.286096 1 0 ack 40 ------- 0 1.0 0.0 102 213
r 0.286928 0 1 tcp 1040 ------- 0 0.0 1.0 103 194
+ 0.286928 1 0 ack 40 ------- 0 1.0 0.0 103 214
- 0.286928 1 0 ack 40 ------- 0 1.0 0.0 103 214
r 0.286976 1 0 ack 40 ------- 0 1.0 0.0 91 196
+ 0.286976 0 1 tcp 1040 ------- 0 0.0 1.0 111 215
- 0.286976 0 1 tcp 1040 ------- 0 0.0 1.0 111 215
r 0.28776 0 1 tcp 1040 ------- 0 0.0 1.0 104 195
+ 0.28776 1 0 ack 40 ------- 0 1.0 0.0 104 216
- 0.28776 1 0 ack 40 ------- 0 1.0 0.0 104 216
r 0.287808 1 0 ack 40 ------- 0 1.0 0.0 92 198
+ 0.287808 0 1 tcp 1040 ------- 0 0.0 1.0 112 217
- 0.287808 0 1 tcp 1040 ------- 0 0.0 1.0 112 217
r 0.288592 0 1 tcp 1040 ------- 0 0.0 1.0 105 197