V -t * -v 1.0a5 -a 0
A -t * -n 1 -p 0 -o 0x7fffffff -c 30 -a 1
A -t * -h 1 -m 1073741823 -s 0
c -t * -i 1 -n green
c -t * -i 2 -n Red
n -t * -a 0 -s 0 -S UP -v circle -c black -i black
n -t * -a 1 -s 1 -S UP -v circle -c black -i black
n -t * -a 2 -s 2 -S UP -v circle -c black -i black
n -t * -a 3 -s 3 -S UP -v circle -c black -i black
l -t * -s 0 -d 1 -S UP -r 2000000 -D 0.02 -c black -o right
l -t * -s 0 -d 2 -S UP -r 1000000 -D 0.0050000000000000001 -c black -o right-down
l -t * -s 3 -d 2 -S UP -r 1000000 -D 0.01 -c black -o right-up
+ -t 0.1 -s 0 -d 1 -p tcp -e 40 -c 1 -i 0 -a 1 -x {0.0 1.0 0 ------- null}
- -t 0.1 -s 0 -d 1 -p tcp -e 40 -c 1 -i 0 -a 1 -x {0.0 1.0 0 ------- null}
h -t 0.1 -s 0 -d 1 -p tcp -e 40 -c 1 -i 0 -a 1 -x {0.0 1.0 -1 ------- null}
r -t 0.12016 -s 0 -d 1 -p tcp -e 40 -c 1 -i 0 -a 1 -x {0.0 1.0 0 ------- null}
+ -t 0.12016 -s 1 -d 0 -p ack -e 40 -c 1 -i 1 -a 1 -x {1.0 0.0 0 ------- null}
- -t 0.12016 -s 1 -d 0 -p ack -e 40 -c 1 -i 1 -a 1 -x {1.0 0.0 0 ------- null}
h -t 0.12016 -s 1 -d 0 -p ack -e 40 -c 1 -i 1 -a 1 -x {1.0 0.0 -1 ------- null}
r -t 0.14032 -s 1 -d 0 -p ack -e 40 -c 1 -i 1 -a 1 -x {1.0 0.0 0 ------- null}
+ -t 0.14032 -s 0 -d 1 -p tcp -e 1040 -c 1 -i 2 -a 1 -x {0.0 1.0 1 ------- null}
- -t 0.14032 -s 0 -d 1 -p tcp -e 1040 -c 1 -i 2 -a 1 -x {0.0 1.0 1 ------- null}
h -t 0.14032 -s 0 -d 1 -p tcp -e 1040 -c 1 -i 2 -a 1 -x {0.0 1.0 -1 ------- null}
+ -t 0.14032 -s 0 -d 1 -p tcp -e 1040 -c 1 -i 3 -a 1 -x {0.0 1.0 2 ------- null}
- -t 0.14448 -s 0 -d 1 -p tcp -e 1040 -c 1 -i 3 -a 1 -x {0.0 1.0 2 ------- null}
h -t 0.14448 -s 0 -d 1 -p tcp -e 1040 -c 1 -i 3 -a 1 -x {0.0 1.0 -1 ------- null}
r -t 0.16448 -s 0 -d 1 -p tcp -e 1040 -c 1 -i 2 -a 1 -x {0.0 1.0 1 ------- null}
+ -t 0.16448 -s 1 -d 0 -p ack -e 40 -c 1 -i 4 -a 1 -x {1.0 0.0 1 ------- null}
- -t 0.16448 -s 1 -d 0 -p ack -e 40 -c 1 -i 4 -a 1 -x {1.0 0.0 1 ------- null}
h -t 0.16448 -s 1 -d 0 -p ack -e 40 -c 1 -i 4 -a 1 -x {1.0 0.0 -1 ------- null}
r -t 0.16864 -s 0 -d 1 -p tcp -e 1040 -c 1 -i 3 -a 1 -x {0.0 1.0 2 ------- null}
+ -t 0.16864 -s 1 -d 0 -p ack -e 40 -c 1 -i 5 -a 1 -x {1.0 0.0 2 ------- null}
- -t 0.16864 -s 1 -d 0 -p ack -e 40 -c 1 -i 5 -a 1 -x {1.0 0.0 2 ------- null}
h -t 0.16864 -s 1 -d 0 -p ack -e 40 -c 1 -i 5 -a 1 -x {1.0 0.0 -1 ------- null}
r -t 0.18464 -s 1 -d 0 -p ack -e 40 -c 1 -i 4 -a 1 -x {1.0 0.0 1 ------- null}
+ -t 0.18464 -s 0 -d 1 -p tcp -e 1040 -c 1 -i 6 -a 1 -x {0.0 1.0 3 ------- null}
- -t 0.18464 -s 0 -d 1 -p tcp -e 1040 -c 1 -i 6 -a 1 -x {0.0 1.0 3 ------- null}
h -t 0.18464 -s 0 -d 1 -p tcp -e 1040 -c 1 -i 6 -a 1 -x {0.0 1.0 -1 ------- null}
+ -t 0.18464 -s 0 -d 1 -p tcp -e 1040 -c 1 -i 7 -a 1 -x {0.0 1.0 4 ------- null}
r -t 0.1888 -s 1 -d 0 -p ack -e 40 -c 1 -i 5 -a 1 -x {1.0 0.0 2 ------- null}
+ -t 0.1888 -s 0 -d 1 -p tcp -e 1040 -c 1 -i 8 -a 1 -x {0.0 1.0 5 ------- null}
+ -t 0.1888 -s 0 -d 1 -p tcp -e 1040 -c 1 -i 9 -a 1 -x {0.0 1.0 6 ------- null}
- -t 0.1888 -s 0 -d 1 -p tcp -e 1040 -c 1 -i 7 -a 1 -x {0.0 1.0 4 ------- null}
h -t 0.1888 -s 0 -d 1 -p tcp -e 1040 -c 1 -i 7 -a 1 -x {0.0 1.0 -1 ------- null}
- -t 0.19296 -s 0 -d 1 -p tcp -e 1040 -c 1 -i 8 -a 1 -x {0.0 1.0 5 ------- null}
h -t 0.19296 -s 0 -d 1 -p tcp -e 1040 -c 1 -i 8 -a 1 -x {0.0 1.0 -1 ------- null}
- -t 0.19712 -s 0 -d 1 -p tcp -e 1040 -c 1 -i 9 -a 1 -x {0.0 1.0 6 ------- null}
h -t 0.19712 -s 0 -d 1 -p tcp -e 1040 -c 1 -i 9 -a 1 -x {0.0 1.0 -1 ------- null}
r -t 0.2088 -s 0 -d 1 -p tcp -e 1040 -c 1 -i 6 -a 1 -x {0.0 1.0 3 ------- null}
+ -t 0.2088 -s 1 -d 0 -p ack -e 40 -c 1 -i 10 -a 1 -x {1.0 0.0 3 ------- null}
- -t 0.2088 -s 1 -d 0 -p ack -e 40 -c 1 -i 10 -a 1 -x {1.0 0.0 3 ------- null}
h -t 0.2088 -s 1 -d 0 -p ack -e 40 -c 1 -i 10 -a 1 -x {1.0 0.0 -1 ------- null}
r -t 0.21296 -s 0 -d 1 -p tcp -e 1040 -c 1 -i 7 -a 1 -x {0.0 1.0 4 ------- null}
+ -t 0.21296 -s 1 -d 0 -p ack -e 40 -c 1 -i 11 -a 1 -x {1.0 0.0 4 ------- null}
- -t 0.21296 -s 1 -d 0 -p ack -e 40 -c 1 -i 11 -a 1 -x {1.0 0.0 4 ------- null}
h -t 0.21296 -s 1 -d 0 -p ack -e 40 -c 1 -i 11 -a 1 -x {1.0 0.0 -1 ------- null}
r -t 0.21712 -s 0 -d 1 -p tcp -e 1040 -c 1 -i 8 -a 1 -x {0.0 1.0 5 ------- null}
+ -t 0.21712 -s 1 -d 0 -p ack -e 40 -c 1 -i 12 -a 1 -x {1.0 0.0 5 ------- null}
- -t 0.21712 -s 1 -d 0 -p ack -e 40 -c 1 -i 12 -a 1 -x {1.0 0.0 5 ------- null}
h -t 0.21712 -s 1 -d 0 -p ack -e 40 -c 1 -i 12 -a 1 -x {1.0 0.0 -1 ------- null}
r -t 0.22128 -s 0 -d 1 -p tcp -e 1040 -c 1 -i 9 -a 1 -x {0.0 1.0 6 ------- null}
+ -t 0.22128 -s 1 -d 0 -p ack -e 40 -c 1 -i 13 -a 1 -x {1.0 0.0 6 ------- null}
- -t 0.22128 -s 1 -d 0 -p ack -e 40 -c 1 -i 13 -a 1 -x {1.0 0.0 6 ------- null}
h -t 0.22128 -s 1 -d 0 -p ack -e 40 -c 1 -i 13 -a 1 -x {1.0 0.0 -1 ------- null}
r -t 0.22896 -s 1 -d 0 -p ack -e 40 -c 1 -i 10 -a 1 -x {1.0 0.0 3 ------- null}
+ -t 0.22896 -s 0 -d 1 -p tcp -e 1040 -c 1 -i 14 -a 1 -x {0.0 1.0 7 ------- null}
- -t 0.22896 -s 0 -d 1 -p tcp -e 1040 -c 1 -i 14 -a 1 -x {0.0 1.0 7 ------- null}
h -t 0.22896 -s 0 -d 1 -p tcp -e 1040 -c 1 -i 14 -a 1 -x {0.0 1.0 -1 ------- null}
+ -t 0.22896 -s 0 -d 1 -p tcp -e 1040 -c 1 -i 15 -a 1 -x {0.0 1.0 8 ------- null}
r -t 0.23312 -s 1 -d 0 -p ack -e 40 -c 1 -i 11 -a 1 -x {1.0 0.0 4 ------- null}
+ -t 0.23312 -s 0 -d 1 -p tcp -e 1040 -c 1 -i 16 -a 1 -x {0.0 1.0 9 ------- null}
+ -t 0.23312 -s 0 -d 1 -p tcp -e 1040 -c 1 -i 17 -a 1 -x {0.0 1.0 10 ------- null}
- -t 0.23312 -s 0 -d 1 -p tcp -e 1040 -c 1 -i 15 -a 1 -x {0.0 1.0 8 ------- null}
h -t 0.23312 -s 0 -d 1 -p tcp -e 1040 -c 1 -i 15 -a 1 -x {0.0 1.0 -1 ------- null}
r -t 0.23728 -s 1 -d 0 -p ack -e 40 -c 1 -i 12 -a 1 -x {1.0 0.0 5 ------- null}
+ -t 0.23728 -s 0 -d 1 -p tcp -e 1040 -c 1 -i 18 -a 1 -x {0.0 1.0 11 ------- null}
+ -t 0.23728 -s 0 -d 1 -p tcp -e 1040 -c 1 -i 19 -a 1 -x {0.0 1.0 12 ------- null}
- -t 0.23728 -s 0 -d 1 -p tcp -e 1040 -c 1 -i 16 -a 1 -x {0.0 1.0 9 ------- null}
h -t 0.23728 -s 0 -d 1 -p tcp -e 1040 -c 1 -i 16 -a 1 -x {0.0 1.0 -1 ------- null}
r -t 0.24144 -s 1 -d 0 -p ack -e 40 -c 1 -i 13 -a 1 -x {1.0 0.0 6 ------- null}
+ -t 0.24144 -s 0 -d 1 -p tcp -e 1040 -c 1 -i 20 -a 1 -x {0.0 1.0 13 ------- null}
+ -t 0.24144 -s 0 -d 1 -p tcp -e 1040 -c 1 -i 21 -a 1 -x {0.0 1.0 14 ------- null}
- -t 0.24144 -s 0 -d 1 -p tcp -e 1040 -c 1 -i 17 -a 1 -x {0.0 1.0 10 ------- null}
h -t 0.24144 -s 0 -d 1 -p tcp -e 1040 -c 1 -i 17 -a 1 -x {0.0 1.0 -1 ------- null}
- -t 0.2456 -s 0 -d 1 -p tcp -e 1040 -c 1 -i 18 -a 1 -x {0.0 1.0 11 ------- null}
h -t 0.2456 -s 0 -d 1 -p tcp -e 1040 -c 1 -i 18 -a 1 -x {0.0 1.0 -1 ------- null}
- -t 0.24976 -s 0 -d 1 -p tcp -e 1040 -c 1 -i 19 -a 1 -x {0.0 1.0 12 ------- null}
h -t 0.24976 -s 0 -d 1 -p tcp -e 1040 -c 1 -i 19 -a 1 -x {0.0 1.0 -1 ------- null}
r -t 0.25312 -s 0 -d 1 -p tcp -e 1040 -c 1 -i 14 -a 1 -x {0.0 1.0 7 ------- null}
+ -t 0.25312 -s 1 -d 0 -p ack -e 40 -c 1 -i 22 -a 1 -x {1.0 0.0 7 ------- null}
- -t 0.25312 -s 1 -d 0 -p ack -e 40 -c 1 -i 22 -a 1 -x {1.0 0.0 7 ------- null}
h -t 0.25312 -s 1 -d 0 -p ack -e 40 -c 1 -i 22 -a 1 -x {1.0 0.0 -1 ------- null}
- -t 0.25392 -s 0 -d 1 -p tcp -e 1040 -c 1 -i 20 -a 1 -x {0.0 1.0 13 ------- null}
h -t 0.25392 -s 0 -d 1 -p tcp -e 1040 -c 1 -i 20 -a 1 -x {0.0 1.0 -1 ------- null}
r -t 0.25728 -s 0 -d 1 -p tcp -e 1040 -c 1 -i 15 -a 1 -x {0.0 1.0 8 ------- null}
+ -t 0.25728 -s 1 -d 0 -p ack -e 40 -c 1 -i 23 -a 1 -x {1.0 0.0 8 ------- null}
- -t 0.25728 -s 1 -d 0 -p ack -e 40 -c 1 -i 23 -a 1 -x {1.0 0.0 8 ------- null}
h -t 0.25728 -s 1 -d 0 -p ack -e 40 -c 1 -i 23 -a 1 -x {1.0 0.0 -1 ------- null}
- -t 0.25808 -s 0 -d 1 -p tcp -e 1040 -c 1 -i 21 -a 1 -x {0.0 1.0 14 ------- null}
h -t 0.25808 -s 0 -d 1 -p tcp -e 1040 -c 1 -i 21 -a 1 -x {0.0 1.0 -1 ------- null}
r -t 0.26144 -s 0 -d 1 -p tcp -e 1040 -c 1 -i 16 -a 1 -x {0.0 1.0 9 ------- null}
+ -t 0.26144 -s 1 -d 0 -p ack -e 40 -c 1 -i 24 -a 1 -x {1.0 0.0 9 ------- null}
- -t 0.26144 -s 1 -d 0 -p ack -e 40 -c 1 -i 24 -a 1 -x {1.0 0.0 9 ------- null}
h -t 0.26144 -s 1 -d 0 -p ack -e 40 -c 1 -i 24 -a 1 -x {1.0 0.0 -1 ------- null}
r -t 0.2656 -s 0 -d 1 -p tcp -e 1040 -c 1 -i 17 -a 1 -x {0.0 1.0 10 ------- null}
+ -t 0.2656 -s 1 -d 0 -p ack -e 40 -c 1 -i 25 -a 1 -x {1.0 0.0 10 ------- null}
- -t 0.2656 -s 1 -d 0 -p ack -e 40 -c 1 -i 25 -a 1 -x {1.0 0.0 10 ------- null}
h -t 0.2656 -s 1 -d 0 -p ack -e 40 -c 1 -i 25 -a 1 -x {1.0 0.0 -1 ------- null}
r -t 0.26976 -s 0 -d 1 -p tcp -e 1040 -c 1 -i 18 -a 1 -x {0.0 1.0 11 ------- null}
+ -t 0.26976 -s 1 -d 0 -p ack -e 40 -c 1 -i 26 -a 1 -x {1.0 0.0 11 ------- null}
- -t 0.26976 -s 1 -d 0 -p ack -e 40 -c 1 -i 26 -a 1 -x {1.0 0.0 11 ------- null}
h -t 0.26976 -s 1 -d 0 -p ack -e 40 -c 1 -i 26 -a 1 -x {1.0 0.0 -1 ------- null}
r -t 0.27328 -s 1 -d 0 -p ack -e 40 -c 1 -i 22 -a 1 -x {1.0 0.0 7 ------- null}
+ -t 0.27328 -s 0 -d 1 -p tcp -e 1040 -c 1 -i 27 -a 1 -x {0.0 1.0 15 ------- null}
- -t 0.27328 -s 0 -d 1 -p tcp -e 1040 -c 1 -i 27 -a 1 -x {0.0 1.0 15 ------- null}
h -t 0.27328 -s 0 -d 1 -p tcp -e 1040 -c 1 -i 27 -a 1 -x {0.0 1.0 -1 ------- null}
+ -t 0.27328 -s 0 -d 1 -p tcp -e 1040 -c 1 -i 28 -a 1 -x {0.0 1.0 16 ------- null}
r -t 0.27392 -s 0 -d 1 -p tcp -e 1040 -c 1 -i 19 -a 1 -x {0.0 1.0 12 ------- null}
+ -t 0.27392 -s 1 -d 0 -p ack -e 40 -c 1 -i 29 -a 1 -x {1.0 0.0 12 ------- null}
- -t 0.27392 -s 1 -d 0 -p ack -e 40 -c 1 -i 29 -a 1 -x {1.0 0.0 12 ------- null}
h -t 0.27392 -s 1 -d 0 -p ack -e 40 -c 1 -i 29 -a 1 -x {1.0 0.0 -1 ------- null}
r -t 0.27744 -s 1 -d 0 -p ack -e 40 -c 1 -i 23 -a 1 -x {1.0 0.0 8 ------- null}
+ -t 0.27744 -s 0 -d 1 -p tcp -e 1040 -c 1 -i 30 -a 1 -x {0.0 1.0 17 ------- null}
+ -t 0.27744 -s 0 -d 1 -p tcp -e 1040 -c 1 -i 31 -a 1 -x {0.0 1.0 18 ------- null}
- -t 0.27744 -s 0 -d 1 -p tcp -e 1040 -c 1 -i 28 -a 1 -x {0.0 1.0 16 ------- null}
h -t 0.27744 -s 0 -d 1 -p tcp -e 1040 -c 1 -i 28 -a 1 -x {0.0 1.0 -1 ------- null}
r -t 0.27808 -s 0 -d 1 -p tcp -e 1040 -c 1 -i 20 -a 1 -x {0.0 1.0 13 ------- null}
+ -t 0.27808 -s 1 -d 0 -p ack -e 40 -c 1 -i 32 -a 1 -x {1.0 0.0 13 ------- null}
- -t 0.27808 -s 1 -d 0 -p ack -e 40 -c 1 -i 32 -a 1 -x {1.0 0.0 13 ------- null}
h -t 0.27808 -s 1 -d 0 -p ack -e 40 -c 1 -i 32 -a 1 -x {1.0 0.0 -1 ------- null}
r -t 0.2816 -s 1 -d 0 -p ack -e 40 -c 1 -i 24 -a 1 -x {1.0 0.0 9 ------- null}
+ -t 0.2816 -s 0 -d 1 -p tcp -e 1040 -c 1 -i 33 -a 1 -x {0.0 1.0 19 ------- null}
+ -t 0.2816 -s 0 -d 1 -p tcp -e 1040 -c 1 -i 34 -a 1 -x {0.0 1.0 20 ------- null}
- -t 0.2816 -s 0 -d 1 -p tcp -e 1040 -c 1 -i 30 -a 1 -x {0.0 1.0 17 ------- null}
h -t 0.2816 -s 0 -d 1 -p tcp -e 1040 -c 1 -i 30 -a 1 -x {0.0 1.0 -1 ------- null}
r -t 0.28224 -s 0 -d 1 -p tcp -e 1040 -c 1 -i 21 -a 1 -x {0.0 1.0 14 ------- null}
+ -t 0.28224 -s 1 -d 0 -p ack -e 40 -c 1 -i 35 -a 1 -x {1.0 0.0 14 ------- null}
- -t 0.28224 -s 1 -d 0 -p ack -e 40 -c 1 -i 35 -a 1 -x {1.0 0.0 14 ------- null}
h -t 0.28224 -s 1 -d 0 -p ack -e 40 -c 1 -i 35 -a 1 -x {1.0 0.0 -1 ------- null}
r -t 0.28576 -s 1 -d 0 -p ack -e 40 -c 1 -i 25 -a 1 -x {1.0 0.0 10 ------- null}
+ -t 0.28576 -s 0 -d 1 -p tcp -e 1040 -c 1 -i 36 -a 1 -x {0.0 1.0 21 ------- null}
+ -t 0.28576 -s 0 -d 1 -p tcp -e 1040 -c 1 -i 37 -a 1 -x {0.0 1.0 22 ------- null}
- -t 0.28576 -s 0 -d 1 -p tcp -e 1040 -c 1 -i 31 -a 1 -x {0.0 1.0 18 ------- null}
h -t 0.28576 -s 0 -d 1 -p tcp -e 1040 -c 1 -i 31 -a 1 -x {0.0 1.0 -1 ------- null}
r -t 0.28992 -s 1 -d 0 -p ack -e 40 -c 1 -i 26 -a 1 -x {1.0 0.0 11 ------- null}
+ -t 0.28992 -s 0 -d 1 -p tcp -e 1040 -c 1 -i 38 -a 1 -x {0.0 1.0 23 ------- null}
+ -t 0.28992 -s 0 -d 1 -p tcp -e 1040 -c 1 -i 39 -a 1 -x {0.0 1.0 24 ------- null}
- -t 0.28992 -s 0 -d 1 -p tcp -e 1040 -c 1 -i 33 -a 1 -x {0.0 1.0 19 ------- null}
h -t 0.28992 -s 0 -d 1 -p tcp -e 1040 -c 1 -i 33 -a 1 -x {0.0 1.0 -1 ------- null}
r -t 0.29408 -s 1 -d 0 -p ack -e 40 -c 1 -i 29 -a 1 -x {1.0 0.0 12 ------- null}
+ -t 0.29408 -s 0 -d 1 -p tcp -e 1040 -c 1 -i 40 -a 1 -x {0.0 1.0 25 ------- null}
+ -t 0.29408 -s 0 -d 1 -p tcp -e 1040 -c 1 -i 41 -a 1 -x {0.0 1.0 26 ------- null}
- -t 0.29408 -s 0 -d 1 -p tcp -e 1040 -c 1 -i 34 -a 1 -x {0.0 1.0 20 ------- null}
h -t 0.29408 -s 0 -d 1 -p tcp -e 1040 -c 1 -i 34 -a 1 -x {0.0 1.0 -1 ------- null}
r -t 0.29744 -s 0 -d 1 -p tcp -e 1040 -c 1 -i 27 -a 1 -x {0.0 1.0 15 ------- null}
+ -t 0.29744 -s 1 -d 0 -p ack -e 40 -c 1 -i 42 -a 1 -x {1.0 0.0 15 ------- null}
- -t 0.29744 -s 1 -d 0 -p ack -e 40 -c 1 -i 42 -a 1 -x {1.0 0.0 15 ------- null}
h -t 0.29744 -s 1 -d 0 -p ack -e 40 -c 1 -i 42 -a 1 -x {1.0 0.0 -1 ------- null}
r -t 0.29824 -s 1 -d 0 -p ack -e 40 -c 1 -i 32 -a 1 -x {1.0 0.0 13 ------- null}
+ -t 0.29824 -s 0 -d 1 -p tcp -e 1040 -c 1 -i 43 -a 1 -x {0.0 1.0 27 ------- null}
+ -t 0.29824 -s 0 -d 1 -p tcp -e 1040 -c 1 -i 44 -a 1 -x {0.0 1.0 28 ------- null}
- -t 0.29824 -s 0 -d 1 -p tcp -e 1040 -c 1 -i 36 -a 1 -x {0.0 1.0 21 ------- null}
h -t 0.29824 -s 0 -d 1 -p tcp -e 1040 -c 1 -i 36 -a 1 -x {0.0 1.0 -1 ------- null}
r -t 0.3016 -s 0 -d 1 -p tcp -e 1040 -c 1 -i 28 -a 1 -x {0.0 1.0 16 ------- null}
+ -t 0.3016 -s 1 -d 0 -p ack -e 40 -c 1 -i 45 -a 1 -x {1.0 0.0 16 ------- null}
- -t 0.3016 -s 1 -d 0 -p ack -e 40 -c 1 -i 45 -a 1 -x {1.0 0.0 16 ------- null}
h -t 0.3016 -s 1 -d 0 -p ack -e 40 -c 1 -i 45 -a 1 -x {1.0 0.0 -1 ------- null}
r -t 0.3024 -s 1 -d 0 -p ack -e 40 -c 1 -i 35 -a 1 -x {1.0 0.0 14 ------- null}
+ -t 0.3024 -s 0 -d 1 -p tcp -e 1040 -c 1 -i 46 -a 1 -x {0.0 1.0 29 ------- null}
+ -t 0.3024 -s 0 -d 1 -p tcp -e 1040 -c 1 -i 47 -a 1 -x {0.0 1.0 30 ------- null}
- -t 0.3024 -s 0 -d 1 -p tcp -e 1040 -c 1 -i 37 -a 1 -x {0.0 1.0 22 ------- null}
h -t 0.3024 -s 0 -d 1 -p tcp -e 1040 -c 1 -i 37 -a 1 -x {0.0 1.0 -1 ------- null}
r -t 0.30576 -s 0 -d 1 -p tcp -e 1040 -c 1 -i 30 -a 1 -x {0.0 1.0 17 ------- null}
+ -t 0.30576 -s 1 -d 0 -p ack -e 40 -c 1 -i 48 -a 1 -x {1.0 0.0 17 ------- null}
- -t 0.30576 -s 1 -d 0 -p ack -e 40 -c 1 -i 48 -a 1 -x {1.0 0.0 17 ------- null}
h -t 0.30576 -s 1 -d 0 -p ack -e 40 -c 1 -i 48 -a 1 -x {1.0 0.0 -1 ------- null}
- -t 0.30656 -s 0 -d 1 -p tcp -e 1040 -c 1 -i 38 -a 1 -x {0.0 1.0 23 ------- null}
h -t 0.30656 -s 0 -d 1 -p tcp -e 1040 -c 1 -i 38 -a 1 -x {0.0 1.0 -1 ------- null}
r -t 0.30992 -s 0 -d 1 -p tcp -e 1040 -c 1 -i 31 -a 1 -x {0.0 1.0 18 ------- null}
+ -t 0.30992 -s 1 -d 0 -p ack -e 40 -c 1 -i 49 -a 1 -x {1.0 0.0 18 ------- null}
- -t 0.30992 -s 1 -d 0 -p ack -e 40 -c 1 -i 49 -a 1 -x {1.0 0.0 18 ------- null}
h -t 0.30992 -s 1 -d 0 -p ack -e 40 -c 1 -i 49 -a 1 -x {1.0 0.0 -1 ------- null}
- -t 0.31072 -s 0 -d 1 -p tcp -e 1040 -c 1 -i 39 -a 1 -x {0.0 1.0 24 ------- null}
h -t 0.31072 -s 0 -d 1 -p tcp -e 1040 -c 1 -i 39 -a 1 -x {0.0 1.0 -1 ------- null}
r -t 0.31408 -s 0 -d 1 -p tcp -e 1040 -c 1 -i 33 -a 1 -x {0.0 1.0 19 ------- null}
+ -t 0.31408 -s 1 -d 0 -p ack -e 40 -c 1 -i 50 -a 1 -x {1.0 0.0 19 ------- null}
- -t 0.31408 -s 1 -d 0 -p ack -e 40 -c 1 -i 50 -a 1 -x {1.0 0.0 19 ------- null}
h -t 0.31408 -s 1 -d 0 -p ack -e 40 -c 1 -i 50 -a 1 -x {1.0 0.0 -1 ------- null}
- -t 0.31488 -s 0 -d 1 -p tcp -e 1040 -c 1 -i 40 -a 1 -x {0.0 1.0 25 ------- null}
h -t 0.31488 -s 0 -d 1 -p tcp -e 1040 -c 1 -i 40 -a 1 -x {0.0 1.0 -1 ------- null}
r -t 0.3176 -s 1 -d 0 -p ack -e 40 -c 1 -i 42 -a 1 -x {1.0 0.0 15 ------- null}
+ -t 0.3176 -s 0 -d 1 -p tcp -e 1040 -c 1 -i 51 -a 1 -x {0.0 1.0 31 ------- null}
+ -t 0.3176 -s 0 -d 1 -p tcp -e 1040 -c 1 -i 52 -a 1 -x {0.0 1.0 32 ------- null}
r -t 0.31824 -s 0 -d 1 -p tcp -e 1040 -c 1 -i 34 -a 1 -x {0.0 1.0 20 ------- null}
+ -t 0.31824 -s 1 -d 0 -p ack -e 40 -c 1 -i 53 -a 1 -x {1.0 0.0 20 ------- null}
- -t 0.31824 -s 1 -d 0 -p ack -e 40 -c 1 -i 53 -a 1 -x {1.0 0.0 20 ------- null}
h -t 0.31824 -s 1 -d 0 -p ack -e 40 -c 1 -i 53 -a 1 -x {1.0 0.0 -1 ------- null}
- -t 0.31904 -s 0 -d 1 -p tcp -e 1040 -c 1 -i 41 -a 1 -x {0.0 1.0 26 ------- null}
h -t 0.31904 -s 0 -d 1 -p tcp -e 1040 -c 1 -i 41 -a 1 -x {0.0 1.0 -1 ------- null}
r -t 0.32176 -s 1 -d 0 -p ack -e 40 -c 1 -i 45 -a 1 -x {1.0 0.0 16 ------- null}
+ -t 0.32176 -s 0 -d 1 -p tcp -e 1040 -c 1 -i 54 -a 1 -x {0.0 1.0 33 ------- null}
+ -t 0.32176 -s 0 -d 1 -p tcp -e 1040 -c 1 -i 55 -a 1 -x {0.0 1.0 34 ------- null}
r -t 0.3224 -s 0 -d 1 -p tcp -e 1040 -c 1 -i 36 -a 1 -x {0.0 1.0 21 ------- null}
+ -t 0.3224 -s 1 -d 0 -p ack -e 40 -c 1 -i 56 -a 1 -x {1.0 0.0 21 ------- null}
- -t 0.3224 -s 1 -d 0 -p ack -e 40 -c 1 -i 56 -a 1 -x {1.0 0.0 21 ------- null}
h -t 0.3224 -s 1 -d 0 -p ack -e 40 -c 1 -i 56 -a 1 -x {1.0 0.0 -1 ------- null}
- -t 0.3232 -s 0 -d 1 -p tcp -e 1040 -c 1 -i 43 -a 1 -x {0.0 1.0 27 ------- null}
h -t 0.3232 -s 0 -d 1 -p tcp -e 1040 -c 1 -i 43 -a 1 -x {0.0 1.0 -1 ------- null}
r -t 0.32592 -s 1 -d 0 -p ack -e 40 -c 1 -i 48 -a 1 -x {1.0 0.0 17 ------- null}
+ -t 0.32592 -s 0 -d 1 -p tcp -e 1040 -c 1 -i 57 -a 1 -x {0.0 1.0 35 ------- null}
+ -t 0.32592 -s 0 -d 1 -p tcp -e 1040 -c 1 -i 58 -a 1 -x {0.0 1.0 36 ------- null}
r -t 0.32656 -s 0 -d 1 -p tcp -e 1040 -c 1 -i 37 -a 1 -x {0.0 1.0 22 ------- null}
+ -t 0.32656 -s 1 -d 0 -p ack -e 40 -c 1 -i 59 -a 1 -x {1.0 0.0 22 ------- null}
- -t 0.32656 -s 1 -d 0 -p ack -e 40 -c 1 -i 59 -a 1 -x {1.0 0.0 22 ------- null}
h -t 0.32656 -s 1 -d 0 -p ack -e 40 -c 1 -i 59 -a 1 -x {1.0 0.0 -1 ------- null}
- -t 0.32736 -s 0 -d 1 -p tcp -e 1040 -c 1 -i 44 -a 1 -x {0.0 1.0 28 ------- null}
h -t 0.32736 -s 0 -d 1 -p tcp -e 1040 -c 1 -i 44 -a 1 -x {0.0 1.0 -1 ------- null}
r -t 0.33008 -s 1 -d 0 -p ack -e 40 -c 1 -i 49 -a 1 -x {1.0 0.0 18 ------- null}
+ -t 0.33008 -s 0 -d 1 -p tcp -e 1040 -c 1 -i 60 -a 1 -x {0.0 1.0 37 ------- null}
+ -t 0.33008 -s 0 -d 1 -p tcp -e 1040 -c 1 -i 61 -a 1 -x {0.0 1.0 38 ------- null}
r -t 0.33072 -s 0 -d 1 -p tcp -e 1040 -c 1 -i 38 -a 1 -x {0.0 1.0 23 ------- null}
+ -t 0.33072 -s 1 -d 0 -p ack -e 40 -c 1 -i 62 -a 1 -x {1.0 0.0 23 ------- null}
- -t 0.33072 -s 1 -d 0 -p ack -e 40 -c 1 -i 62 -a 1 -x {1.0 0.0 23 ------- null}
h -t 0.33072 -s 1 -d 0 -p ack -e 40 -c 1 -i 62 -a 1 -x {1.0 0.0 -1 ------- null}
- -t 0.33152 -s 0 -d 1 -p tcp -e 1040 -c 1 -i 46 -a 1 -x {0.0 1.0 29 ------- null}
h -t 0.33152 -s 0 -d 1 -p tcp -e 1040 -c 1 -i 46 -a 1 -x {0.0 1.0 -1 ------- null}
r -t 0.33424 -s 1 -d 0 -p ack -e 40 -c 1 -i 50 -a 1 -x {1.0 0.0 19 ------- null}
+ -t 0.33424 -s 0 -d 1 -p tcp -e 1040 -c 1 -i 63 -a 1 -x {0.0 1.0 39 ------- null}
r -t 0.33488 -s 0 -d 1 -p tcp -e 1040 -c 1 -i 39 -a 1 -x {0.0 1.0 24 ------- null}
+ -t 0.33488 -s 1 -d 0 -p ack -e 40 -c 1 -i 64 -a 1 -x {1.0 0.0 24 ------- null}
- -t 0.33488 -s 1 -d 0 -p ack -e 40 -c 1 -i 64 -a 1 -x {1.0 0.0 24 ------- null}
h -t 0.33488 -s 1 -d 0 -p ack -e 40 -c 1 -i 64 -a 1 -x {1.0 0.0 -1 ------- null}
- -t 0.33568 -s 0 -d 1 -p tcp -e 1040 -c 1 -i 47 -a 1 -x {0.0 1.0 30 ------- null}
h -t 0.33568 -s 0 -d 1 -p tcp -e 1040 -c 1 -i 47 -a 1 -x {0.0 1.0 -1 ------- null}
r -t 0.3384 -s 1 -d 0 -p ack -e 40 -c 1 -i 53 -a 1 -x {1.0 0.0 20 ------- null}
+ -t 0.3384 -s 0 -d 1 -p tcp -e 1040 -c 1 -i 65 -a 1 -x {0.0 1.0 40 ------- null}
r -t 0.33904 -s 0 -d 1 -p tcp -e 1040 -c 1 -i 40 -a 1 -x {0.0 1.0 25 ------- null}
+ -t 0.33904 -s 1 -d 0 -p ack -e 40 -c 1 -i 66 -a 1 -x {1.0 0.0 25 ------- null}
- -t 0.33904 -s 1 -d 0 -p ack -e 40 -c 1 -i 66 -a 1 -x {1.0 0.0 25 ------- null}
h -t 0.33904 -s 1 -d 0 -p ack -e 40 -c 1 -i 66 -a 1 -x {1.0 0.0 -1 ------- null}
- -t 0.33984 -s 0 -d 1 -p tcp -e 1040 -c 1 -i 51 -a 1 -x {0.0 1.0 31 ------- null}
h -t 0.33984 -s 0 -d 1 -p tcp -e 1040 -c 1 -i 51 -a 1 -x {0.0 1.0 -1 ------- null}
r -t 0.34256 -s 1 -d 0 -p ack -e 40 -c 1 -i 56 -a 1 -x {1.0 0.0 21 ------- null}
+ -t 0.34256 -s 0 -d 1 -p tcp -e 1040 -c 1 -i 67 -a 1 -x {0.0 1.0 41 ------- null}
r -t 0.3432 -s 0 -d 1 -p tcp -e 1040 -c 1 -i 41 -a 1 -x {0.0 1.0 26 ------- null}
+ -t 0.3432 -s 1 -d 0 -p ack -e 40 -c 1 -i 68 -a 1 -x {1.0 0.0 26 ------- null}
- -t 0.3432 -s 1 -d 0 -p ack -e 40 -c 1 -i 68 -a 1 -x {1.0 0.0 26 ------- null}
h -t 0.3432 -s 1 -d 0 -p ack -e 40 -c 1 -i 68 -a 1 -x {1.0 0.0 -1 ------- null}
- -t 0.344 -s 0 -d 1 -p tcp -e 1040 -c 1 -i 52 -a 1 -x {0.0 1.0 32 ------- null}
h -t 0.344 -s 0 -d 1 -p tcp -e 1040 -c 1 -i 52 -a 1 -x {0.0 1.0 -1 ------- null}
r -t 0.34672 -s 1 -d 0 -p ack -e 40 -c 1 -i 59 -a 1 -x {1.0 0.0 22 ------- null}
+ -t 0.34672 -s 0 -d 1 -p tcp -e 1040 -c 1 -i 69 -a 1 -x {0.0 1.0 42 ------- null}
r -t 0.34736 -s 0 -d 1 -p tcp -e 1040 -c 1 -i 43 -a 1 -x {0.0 1.0 27 ------- null}
+ -t 0.34736 -s 1 -d 0 -p ack -e 40 -c 1 -i 70 -a 1 -x {1.0 0.0 27 ------- null}
- -t 0.34736 -s 1 -d 0 -p ack -e 40 -c 1 -i 70 -a 1 -x {1.0 0.0 27 ------- null}
h -t 0.34736 -s 1 -d 0 -p ack -e 40 -c 1 -i 70 -a 1 -x {1.0 0.0 -1 ------- null}
- -t 0.34816 -s 0 -d 1 -p tcp -e 1040 -c 1 -i 54 -a 1 -x {0.0 1.0 33 ------- null}
h -t 0.34816 -s 0 -d 1 -p tcp -e 1040 -c 1 -i 54 -a 1 -x {0.0 1.0 -1 ------- null}
r -t 0.35088 -s 1 -d 0 -p ack -e 40 -c 1 -i 62 -a 1 -x {1.0 0.0 23 ------- null}
+ -t 0.35088 -s 0 -d 1 -p tcp -e 1040 -c 1 -i 71 -a 1 -x {0.0 1.0 43 ------- null}
r -t 0.35152 -s 0 -d 1 -p tcp -e 1040 -c 1 -i 44 -a 1 -x {0.0 1.0 28 ------- null}
+ -t 0.35152 -s 1 -d 0 -p ack -e 40 -c 1 -i 72 -a 1 -x {1.0 0.0 28 ------- null}
- -t 0.35152 -s 1 -d 0 -p ack -e 40 -c 1 -i 72 -a 1 -x {1.0 0.0 28 ------- null}
h -t 0.35152 -s 1 -d 0 -p ack -e 40 -c 1 -i 72 -a 1 -x {1.0 0.0 -1 ------- null}
- -t 0.35232 -s 0 -d 1 -p tcp -e 1040 -c 1 -i 55 -a 1 -x {0.0 1.0 34 ------- null}
h -t 0.35232 -s 0 -d 1 -p tcp -e 1040 -c 1 -i 55 -a 1 -x {0.0 1.0 -1 ------- null}
r -t 0.35504 -s 1 -d 0 -p ack -e 40 -c 1 -i 64 -a 1 -x {1.0 0.0 24 ------- null}
+ -t 0.35504 -s 0 -d 1 -p tcp -e 1040 -c 1 -i 73 -a 1 -x {0.0 1.0 44 ------- null}
r -t 0.35568 -s 0 -d 1 -p tcp -e 1040 -c 1 -i 46 -a 1 -x {0.0 1.0 29 ------- null}
+ -t 0.35568 -s 1 -d 0 -p ack -e 40 -c 1 -i 74 -a 1 -x {1.0 0.0 29 ------- null}
- -t 0.35568 -s 1 -d 0 -p ack -e 40 -c 1 -i 74 -a 1 -x {1.0 0.0 29 ------- null}
h -t 0.35568 -s 1 -d 0 -p ack -e 40 -c 1 -i 74 -a 1 -x {1.0 0.0 -1 ------- null}
- -t 0.35648 -s 0 -d 1 -p tcp -e 1040 -c 1 -i 57 -a 1 -x {0.0 1.0 35 ------- null}
h -t 0.35648 -s 0 -d 1 -p tcp -e 1040 -c 1 -i 57 -a 1 -x {0.0 1.0 -1 ------- null}
r -t 0.3592 -s 1 -d 0 -p ack -e 40 -c 1 -i 66 -a 1 -x {1.0 0.0 25 ------- null}
+ -t 0.3592 -s 0 -d 1 -p tcp -e 1040 -c 1 -i 75 -a 1 -x {0.0 1.0 45 ------- null}
r -t 0.35984 -s 0 -d 1 -p tcp -e 1040 -c 1 -i 47 -a 1 -x {0.0 1.0 30 ------- null}
+ -t 0.35984 -s 1 -d 0 -p ack -e 40 -c 1 -i 76 -a 1 -x {1.0 0.0 30 ------- null}
- -t 0.35984 -s 1 -d 0 -p ack -e 40 -c 1 -i 76 -a 1 -x {1.0 0.0 30 ------- null}
h -t 0.35984 -s 1 -d 0 -p ack -e 40 -c 1 -i 76 -a 1 -x {1.0 0.0 -1 ------- null}
- -t 0.36064 -s 0 -d 1 -p tcp -e 1040 -c 1 -i 58 -a 1 -x {0.0 1.0 36 ------- null}
h -t 0.36064 -s 0 -d 1 -p tcp -e 1040 -c 1 -i 58 -a 1 -x {0.0 1.0 -1 ------- null}
r -t 0.36336 -s 1 -d 0 -p ack -e 40 -c 1 -i 68 -a 1 -x {1.0 0.0 26 ------- null}
+ -t 0.36336 -s 0 -d 1 -p tcp -e 1040 -c 1 -i 77 -a 1 -x {0.0 1.0 46 ------- null}
r -t 0.364 -s 0 -d 1 -p tcp -e 1040 -c 1 -i 51 -a 1 -x {0.0 1.0 31 ------- null}
+ -t 0.364 -s 1 -d 0 -p ack -e 40 -c 1 -i 78 -a 1 -x {1.0 0.0 31 ------- null}
- -t 0.364 -s 1 -d 0 -p ack -e 40 -c 1 -i 78 -a 1 -x {1.0 0.0 31 ------- null}
h -t 0.364 -s 1 -d 0 -p ack -e 40 -c 1 -i 78 -a 1 -x {1.0 0.0 -1 ------- null}
- -t 0.3648 -s 0 -d 1 -p tcp -e 1040 -c 1 -i 60 -a 1 -x {0.0 1.0 37 ------- null}
h -t 0.3648 -s 0 -d 1 -p tcp -e 1040 -c 1 -i 60 -a 1 -x {0.0 1.0 -1 ------- null}
r -t 0.36752 -s 1 -d 0 -p ack -e 40 -c 1 -i 70 -a 1 -x {1.0 0.0 27 ------- null}
+ -t 0.36752 -s 0 -d 1 -p tcp -e 1040 -c 1 -i 79 -a 1 -x {0.0 1.0 47 ------- null}
r -t 0.36816 -s 0 -d 1 -p tcp -e 1040 -c 1 -i 52 -a 1 -x {0.0 1.0 32 ------- null}
+ -t 0.36816 -s 1 -d 0 -p ack -e 40 -c 1 -i 80 -a 1 -x {1.0 0.0 32 ------- null}
- -t 0.36816 -s 1 -d 0 -p ack -e 40 -c 1 -i 80 -a 1 -x {1.0 0.0 32 ------- null}
h -t 0.36816 -s 1 -d 0 -p ack -e 40 -c 1 -i 80 -a 1 -x {1.0 0.0 -1 ------- null}
- -t 0.36896 -s 0 -d 1 -p tcp -e 1040 -c 1 -i 61 -a 1 -x {0.0 1.0 38 ------- null}
h -t 0.36896 -s 0 -d 1 -p tcp -e 1040 -c 1 -i 61 -a 1 -x {0.0 1.0 -1 ------- null}
r -t 0.37168 -s 1 -d 0 -p ack -e 40 -c 1 -i 72 -a 1 -x {1.0 0.0 28 ------- null}
+ -t 0.37168 -s 0 -d 1 -p tcp -e 1040 -c 1 -i 81 -a 1 -x {0.0 1.0 48 ------- null}
r -t 0.37232 -s 0 -d 1 -p tcp -e 1040 -c 1 -i 54 -a 1 -x {0.0 1.0 33 ------- null}
+ -t 0.37232 -s 1 -d 0 -p ack -e 40 -c 1 -i 82 -a 1 -x {1.0 0.0 33 ------- null}
- -t 0.37232 -s 1 -d 0 -p ack -e 40 -c 1 -i 82 -a 1 -x {1.0 0.0 33 ------- null}
h -t 0.37232 -s 1 -d 0 -p ack -e 40 -c 1 -i 82 -a 1 -x {1.0 0.0 -1 ------- null}
- -t 0.37312 -s 0 -d 1 -p tcp -e 1040 -c 1 -i 63 -a 1 -x {0.0 1.0 39 ------- null}
h -t 0.37312 -s 0 -d 1 -p tcp -e 1040 -c 1 -i 63 -a 1 -x {0.0 1.0 -1 ------- null}
r -t 0.37584 -s 1 -d 0 -p ack -e 40 -c 1 -i 74 -a 1 -x {1.0 0.0 29 ------- null}
+ -t 0.37584 -s 0 -d 1 -p tcp -e 1040 -c 1 -i 83 -a 1 -x {0.0 1.0 49 ------- null}
r -t 0.37648 -s 0 -d 1 -p tcp -e 1040 -c 1 -i 55 -a 1 -x {0.0 1.0 34 ------- null}
+ -t 0.37648 -s 1 -d 0 -p ack -e 40 -c 1 -i 84 -a 1 -x {1.0 0.0 34 ------- null}
- -t 0.37648 -s 1 -d 0 -p ack -e 40 -c 1 -i 84 -a 1 -x {1.0 0.0 34 ------- null}
h -t 0.37648 -s 1 -d 0 -p ack -e 40 -c 1 -i 84 -a 1 -x {1.0 0.0 -1 ------- null}
- -t 0.37728 -s 0 -d 1 -p tcp -e 1040 -c 1 -i 65 -a 1 -x {0.0 1.0 40 ------- null}
h -t 0.37728 -s 0 -d 1 -p tcp -e 1040 -c 1 -i 65 -a 1 -x {0.0 1.0 -1 ------- null}
r -t 0.38 -s 1 -d 0 -p ack -e 40 -c 1 -i 76 -a 1 -x {1.0 0.0 30 ------- null}
+ -t 0.38 -s 0 -d 1 -p tcp -e 1040 -c 1 -i 85 -a 1 -x {0.0 1.0 50 ------- null}
r -t 0.38064 -s 0 -d 1 -p tcp -e 1040 -c 1 -i 57 -a 1 -x {0.0 1.0 35 ------- null}
+ -t 0.38064 -s 1 -d 0 -p ack -e 40 -c 1 -i 86 -a 1 -x {1.0 0.0 35 ------- null}
- -t 0.38064 -s 1 -d 0 -p ack -e 40 -c 1 -i 86 -a 1 -x {1.0 0.0 35 ------- null}
h -t 0.38064 -s 1 -d 0 -p ack -e 40 -c 1 -i 86 -a 1 -x {1.0 0.0 -1 ------- null}
- -t 0.38144 -s 0 -d 1 -p tcp -e 1040 -c 1 -i 67 -a 1 -x {0.0 1.0 41 ------- null}
h -t 0.38144 -s 0 -d 1 -p tcp -e 1040 -c 1 -i 67 -a 1 -x {0.0 1.0 -1 ------- null}
r -t 0.38416 -s 1 -d 0 -p ack -e 40 -c 1 -i 78 -a 1 -x {1.0 0.0 31 ------- null}
+ -t 0.38416 -s 0 -d 1 -p tcp -e 1040 -c 1 -i 87 -a 1 -x {0.0 1.0 51 ------- null}
r -t 0.3848 -s 0 -d 1 -p tcp -e 1040 -c 1 -i 58 -a 1 -x {0.0 1.0 36 ------- null}
+ -t 0.3848 -s 1 -d 0 -p ack -e 40 -c 1 -i 88 -a 1 -x {1.0 0.0 36 ------- null}
- -t 0.3848 -s 1 -d 0 -p ack -e 40 -c 1 -i 88 -a 1 -x {1.0 0.0 36 ------- null}
h -t 0.3848 -s 1 -d 0 -p ack -e 40 -c 1 -i 88 -a 1 -x {1.0 0.0 -1 ------- null}
- -t 0.3856 -s 0 -d 1 -p tcp -e 1040 -c 1 -i 69 -a 1 -x {0.0 1.0 42 ------- null}
h -t 0.3856 -s 0 -d 1 -p tcp -e 1040 -c 1 -i 69 -a 1 -x {0.0 1.0 -1 ------- null}
r -t 0.38832 -s 1 -d 0 -p ack -e 40 -c 1 -i 80 -a 1 -x {1.0 0.0 32 ------- null}
+ -t 0.38832 -s 0 -d 1 -p tcp -e 1040 -c 1 -i 89 -a 1 -x {0.0 1.0 52 ------- null}
r -t 0.38896 -s 0 -d 1 -p tcp -e 1040 -c 1 -i 60 -a 1 -x {0.0 1.0 37 ------- null}
+ -t 0.38896 -s 1 -d 0 -p ack -e 40 -c 1 -i 90 -a 1 -x {1.0 0.0 37 ------- null}
- -t 0.38896 -s 1 -d 0 -p ack -e 40 -c 1 -i 90 -a 1 -x {1.0 0.0 37 ------- null}
h -t 0.38896 -s 1 -d 0 -p ack -e 40 -c 1 -i 90 -a 1 -x {1.0 0.0 -1 ------- null}
- -t 0.38976 -s 0 -d 1 -p tcp -e 1040 -c 1 -i 71 -a 1 -x {0.0 1.0 43 ------- null}
h -t 0.38976 -s 0 -d 1 -p tcp -e 1040 -c 1 -i 71 -a 1 -x {0.0 1.0 -1 ------- null}
r -t 0.39248 -s 1 -d 0 -p ack -e 40 -c 1 -i 82 -a 1 -x {1.0 0.0 33 ------- null}
+ -t 0.39248 -s 0 -d 1 -p tcp -e 1040 -c 1 -i 91 -a 1 -x {0.0 1.0 53 ------- null}
r -t 0.39312 -s 0 -d 1 -p tcp -e 1040 -c 1 -i 61 -a 1 -x {0.0 1.0 38 ------- null}
+ -t 0.39312 -s 1 -d 0 -p ack -e 40 -c 1 -i 92 -a 1 -x {1.0 0.0 38 ------- null}
- -t 0.39312 -s 1 -d 0 -p ack -e 40 -c 1 -i 92 -a 1 -x {1.0 0.0 38 ------- null}
h -t 0.39312 -s 1 -d 0 -p ack -e 40 -c 1 -i 92 -a 1 -x {1.0 0.0 -1 ------- null}
- -t 0.39392 -s 0 -d 1 -p tcp -e 1040 -c 1 -i 73 -a 1 -x {0.0 1.0 44 ------- null}
h -t 0.39392 -s 0 -d 1 -p tcp -e 1040 -c 1 -i 73 -a 1 -x {0.0 1.0 -1 ------- null}
r -t 0.39664 -s 1 -d 0 -p ack -e 40 -c 1 -i 84 -a 1 -x {1.0 0.0 34 ------- null}
+ -t 0.39664 -s 0 -d 1 -p tcp -e 1040 -c 1 -i 93 -a 1 -x {0.0 1.0 54 ------- null}
r -t 0.39728 -s 0 -d 1 -p tcp -e 1040 -c 1 -i 63 -a 1 -x {0.0 1.0 39 ------- null}
+ -t 0.39728 -s 1 -d 0 -p ack -e 40 -c 1 -i 94 -a 1 -x {1.0 0.0 39 ------- null}
- -t 0.39728 -s 1 -d 0 -p ack -e 40 -c 1 -i 94 -a 1 -x {1.0 0.0 39 ------- null}
h -t 0.39728 -s 1 -d 0 -p ack -e 40 -c 1 -i 94 -a 1 -x {1.0 0.0 -1 ------- null}
- -t 0.39808 -s 0 -d 1 -p tcp -e 1040 -c 1 -i 75 -a 1 -x {0.0 1.0 45 ------- null}
h -t 0.39808 -s 0 -d 1 -p tcp -e 1040 -c 1 -i 75 -a 1 -x {0.0 1.0 -1 ------- null}
r -t 0.4008 -s 1 -d 0 -p ack -e 40 -c 1 -i 86 -a 1 -x {1.0 0.0 35 ------- null}
+ -t 0.4008 -s 0 -d 1 -p tcp -e 1040 -c 1 -i 95 -a 1 -x {0.0 1.0 55 ------- null}
r -t 0.40144 -s 0 -d 1 -p tcp -e 1040 -c 1 -i 65 -a 1 -x {0.0 1.0 40 ------- null}
+ -t 0.40144 -s 1 -d 0 -p ack -e 40 -c 1 -i 96 -a 1 -x {1.0 0.0 40 ------- null}
- -t 0.40144 -s 1 -d 0 -p ack -e 40 -c 1 -i 96 -a 1 -x {1.0 0.0 40 ------- null}
h -t 0.40144 -s 1 -d 0 -p ack -e 40 -c 1 -i 96 -a 1 -x {1.0 0.0 -1 ------- null}
- -t 0.40224 -s 0 -d 1 -p tcp -e 1040 -c 1 -i 77 -a 1 -x {0.0 1.0 46 ------- null}
h -t 0.40224 -s 0 -d 1 -p tcp -e 1040 -c 1 -i 77 -a 1 -x {0.0 1.0 -1 ------- null}
r -t 0.40496 -s 1 -d 0 -p ack -e 40 -c 1 -i 88 -a 1 -x {1.0 0.0 36 ------- null}
+ -t 0.40496 -s 0 -d 1 -p tcp -e 1040 -c 1 -i 97 -a 1 -x {0.0 1.0 56 ------- null}
r -t 0.4056 -s 0 -d 1 -p tcp -e 1040 -c 1 -i 67 -a 1 -x {0.0 1.0 41 ------- null}
+ -t 0.4056 -s 1 -d 0 -p ack -e 40 -c 1 -i 98 -a 1 -x {1.0 0.0 41 ------- null}
- -t 0.4056 -s 1 -d 0 -p ack -e 40 -c 1 -i 98 -a 1 -x {1.0 0.0 41 ------- null}
h -t 0.4056 -s 1 -d 0 -p ack -e 40 -c 1 -i 98 -a 1 -x {1.0 0.0 -1 ------- null}
- -t 0.4064 -s 0 -d 1 -p tcp -e 1040 -c 1 -i 79 -a 1 -x {0.0 1.0 47 ------- null}
h -t 0.4064 -s 0 -d 1 -p tcp -e 1040 -c 1 -i 79 -a 1 -x {0.0 1.0 -1 ------- null}
r -t 0.40912 -s 1 -d 0 -p ack -e 40 -c 1 -i 90 -a 1 -x {1.0 0.0 37 ------- null}
+ -t 0.40912 -s 0 -d 1 -p tcp -e 1040 -c 1 -i 99 -a 1 -x {0.0 1.0 57 ------- null}
r -t 0.40976 -s 0 -d 1 -p tcp -e 1040 -c 1 -i 69 -a 1 -x {0.0 1.0 42 ------- null}