+ 0.1 1 2 cbr 1000 ------- 1 1.0 5.0 0 0
- 0.1 1 2 cbr 1000 ------- 1 1.0 5.0 0 0
+ 0.108 1 2 cbr 1000 ------- 1 1.0 5.0 1 1
- 0.108 1 2 cbr 1000 ------- 1 1.0 5.0 1 1
r 0.114 1 2 cbr 1000 ------- 1 1.0 5.0 0 0
+ 0.114 2 3 cbr 1000 ------- 1 1.0 5.0 0 0
- 0.114 2 3 cbr 1000 ------- 1 1.0 5.0 0 0
+ 0.116 1 2 cbr 1000 ------- 1 1.0 5.0 2 2
- 0.116 1 2 cbr 1000 ------- 1 1.0 5.0 2 2
r 0.122 1 2 cbr 1000 ------- 1 1.0 5.0 1 1
+ 0.122 2 3 cbr 1000 ------- 1 1.0 5.0 1 1
- 0.122 2 3 cbr 1000 ------- 1 1.0 5.0 1 1
+ 0.124 1 2 cbr 1000 ------- 1 1.0 5.0 3 3
- 0.124 1 2 cbr 1000 ------- 1 1.0 5.0 3 3
r 0.13 1 2 cbr 1000 ------- 1 1.0 5.0 2 2
+ 0.13 2 3 cbr 1000 ------- 1 1.0 5.0 2 2
- 0.13 2 3 cbr 1000 ------- 1 1.0 5.0 2 2
+ 0.132 1 2 cbr 1000 ------- 1 1.0 5.0 4 4
- 0.132 1 2 cbr 1000 ------- 1 1.0 5.0 4 4
r 0.138 2 3 cbr 1000 ------- 1 1.0 5.0 0 0
+ 0.138 3 5 cbr 1000 ------- 1 1.0 5.0 0 0
- 0.138 3 5 cbr 1000 ------- 1 1.0 5.0 0 0
r 0.138 1 2 cbr 1000 ------- 1 1.0 5.0 3 3
+ 0.138 2 3 cbr 1000 ------- 1 1.0 5.0 3 3
- 0.138 2 3 cbr 1000 ------- 1 1.0 5.0 3 3
+ 0.14 1 2 cbr 1000 ------- 1 1.0 5.0 5 5
- 0.14 1 2 cbr 1000 ------- 1 1.0 5.0 5 5
r 0.146 2 3 cbr 1000 ------- 1 1.0 5.0 1 1
+ 0.146 3 5 cbr 1000 ------- 1 1.0 5.0 1 1
- 0.146 3 5 cbr 1000 ------- 1 1.0 5.0 1 1
r 0.146 1 2 cbr 1000 ------- 1 1.0 5.0 4 4
+ 0.146 2 3 cbr 1000 ------- 1 1.0 5.0 4 4
- 0.146 2 3 cbr 1000 ------- 1 1.0 5.0 4 4
+ 0.148 1 2 cbr 1000 ------- 1 1.0 5.0 6 6
- 0.148 1 2 cbr 1000 ------- 1 1.0 5.0 6 6
r 0.152 3 5 cbr 1000 ------- 1 1.0 5.0 0 0
r 0.154 2 3 cbr 1000 ------- 1 1.0 5.0 2 2
+ 0.154 3 5 cbr 1000 ------- 1 1.0 5.0 2 2
- 0.154 3 5 cbr 1000 ------- 1 1.0 5.0 2 2
r 0.154 1 2 cbr 1000 ------- 1 1.0 5.0 5 5
+ 0.154 2 3 cbr 1000 ------- 1 1.0 5.0 5 5
- 0.154 2 3 cbr 1000 ------- 1 1.0 5.0 5 5
+ 0.156 1 2 cbr 1000 ------- 1 1.0 5.0 7 7
- 0.156 1 2 cbr 1000 ------- 1 1.0 5.0 7 7
r 0.16 3 5 cbr 1000 ------- 1 1.0 5.0 1 1
r 0.162 2 3 cbr 1000 ------- 1 1.0 5.0 3 3
+ 0.162 3 5 cbr 1000 ------- 1 1.0 5.0 3 3
- 0.162 3 5 cbr 1000 ------- 1 1.0 5.0 3 3
r 0.162 1 2 cbr 1000 ------- 1 1.0 5.0 6 6
+ 0.162 2 3 cbr 1000 ------- 1 1.0 5.0 6 6
- 0.162 2 3 cbr 1000 ------- 1 1.0 5.0 6 6
+ 0.164 1 2 cbr 1000 ------- 1 1.0 5.0 8 8
- 0.164 1 2 cbr 1000 ------- 1 1.0 5.0 8 8
r 0.168 3 5 cbr 1000 ------- 1 1.0 5.0 2 2
r 0.17 2 3 cbr 1000 ------- 1 1.0 5.0 4 4
+ 0.17 3 5 cbr 1000 ------- 1 1.0 5.0 4 4
- 0.17 3 5 cbr 1000 ------- 1 1.0 5.0 4 4
r 0.17 1 2 cbr 1000 ------- 1 1.0 5.0 7 7
+ 0.17 2 3 cbr 1000 ------- 1 1.0 5.0 7 7
- 0.17 2 3 cbr 1000 ------- 1 1.0 5.0 7 7
+ 0.172 1 2 cbr 1000 ------- 1 1.0 5.0 9 9
- 0.172 1 2 cbr 1000 ------- 1 1.0 5.0 9 9
r 0.176 3 5 cbr 1000 ------- 1 1.0 5.0 3 3
r 0.178 2 3 cbr 1000 ------- 1 1.0 5.0 5 5
+ 0.178 3 5 cbr 1000 ------- 1 1.0 5.0 5 5
- 0.178 3 5 cbr 1000 ------- 1 1.0 5.0 5 5
r 0.178 1 2 cbr 1000 ------- 1 1.0 5.0 8 8
+ 0.178 2 3 cbr 1000 ------- 1 1.0 5.0 8 8
- 0.178 2 3 cbr 1000 ------- 1 1.0 5.0 8 8
+ 0.18 1 2 cbr 1000 ------- 1 1.0 5.0 10 10
- 0.18 1 2 cbr 1000 ------- 1 1.0 5.0 10 10
r 0.184 3 5 cbr 1000 ------- 1 1.0 5.0 4 4
r 0.186 2 3 cbr 1000 ------- 1 1.0 5.0 6 6
+ 0.186 3 5 cbr 1000 ------- 1 1.0 5.0 6 6
- 0.186 3 5 cbr 1000 ------- 1 1.0 5.0 6 6
r 0.186 1 2 cbr 1000 ------- 1 1.0 5.0 9 9
+ 0.186 2 3 cbr 1000 ------- 1 1.0 5.0 9 9
- 0.186 2 3 cbr 1000 ------- 1 1.0 5.0 9 9
+ 0.188 1 2 cbr 1000 ------- 1 1.0 5.0 11 11
- 0.188 1 2 cbr 1000 ------- 1 1.0 5.0 11 11
r 0.192 3 5 cbr 1000 ------- 1 1.0 5.0 5 5
r 0.194 2 3 cbr 1000 ------- 1 1.0 5.0 7 7
+ 0.194 3 5 cbr 1000 ------- 1 1.0 5.0 7 7
- 0.194 3 5 cbr 1000 ------- 1 1.0 5.0 7 7
r 0.194 1 2 cbr 1000 ------- 1 1.0 5.0 10 10
+ 0.194 2 3 cbr 1000 ------- 1 1.0 5.0 10 10
- 0.194 2 3 cbr 1000 ------- 1 1.0 5.0 10 10
+ 0.196 1 2 cbr 1000 ------- 1 1.0 5.0 12 12
- 0.196 1 2 cbr 1000 ------- 1 1.0 5.0 12 12
r 0.2 3 5 cbr 1000 ------- 1 1.0 5.0 6 6
r 0.202 2 3 cbr 1000 ------- 1 1.0 5.0 8 8
+ 0.202 3 5 cbr 1000 ------- 1 1.0 5.0 8 8
- 0.202 3 5 cbr 1000 ------- 1 1.0 5.0 8 8
r 0.202 1 2 cbr 1000 ------- 1 1.0 5.0 11 11
+ 0.202 2 3 cbr 1000 ------- 1 1.0 5.0 11 11
- 0.202 2 3 cbr 1000 ------- 1 1.0 5.0 11 11
+ 0.204 1 2 cbr 1000 ------- 1 1.0 5.0 13 13
- 0.204 1 2 cbr 1000 ------- 1 1.0 5.0 13 13
r 0.208 3 5 cbr 1000 ------- 1 1.0 5.0 7 7
r 0.21 2 3 cbr 1000 ------- 1 1.0 5.0 9 9
+ 0.21 3 5 cbr 1000 ------- 1 1.0 5.0 9 9
- 0.21 3 5 cbr 1000 ------- 1 1.0 5.0 9 9
r 0.21 1 2 cbr 1000 ------- 1 1.0 5.0 12 12
+ 0.21 2 3 cbr 1000 ------- 1 1.0 5.0 12 12
- 0.21 2 3 cbr 1000 ------- 1 1.0 5.0 12 12
+ 0.212 1 2 cbr 1000 ------- 1 1.0 5.0 14 14
- 0.212 1 2 cbr 1000 ------- 1 1.0 5.0 14 14
r 0.216 3 5 cbr 1000 ------- 1 1.0 5.0 8 8
r 0.218 2 3 cbr 1000 ------- 1 1.0 5.0 10 10
+ 0.218 3 5 cbr 1000 ------- 1 1.0 5.0 10 10
- 0.218 3 5 cbr 1000 ------- 1 1.0 5.0 10 10
r 0.218 1 2 cbr 1000 ------- 1 1.0 5.0 13 13
+ 0.218 2 3 cbr 1000 ------- 1 1.0 5.0 13 13
- 0.218 2 3 cbr 1000 ------- 1 1.0 5.0 13 13
+ 0.22 1 2 cbr 1000 ------- 1 1.0 5.0 15 15
- 0.22 1 2 cbr 1000 ------- 1 1.0 5.0 15 15
r 0.224 3 5 cbr 1000 ------- 1 1.0 5.0 9 9
r 0.226 2 3 cbr 1000 ------- 1 1.0 5.0 11 11
+ 0.226 3 5 cbr 1000 ------- 1 1.0 5.0 11 11
- 0.226 3 5 cbr 1000 ------- 1 1.0 5.0 11 11
r 0.226 1 2 cbr 1000 ------- 1 1.0 5.0 14 14
+ 0.226 2 3 cbr 1000 ------- 1 1.0 5.0 14 14
- 0.226 2 3 cbr 1000 ------- 1 1.0 5.0 14 14
+ 0.228 1 2 cbr 1000 ------- 1 1.0 5.0 16 16
- 0.228 1 2 cbr 1000 ------- 1 1.0 5.0 16 16
r 0.232 3 5 cbr 1000 ------- 1 1.0 5.0 10 10
r 0.234 2 3 cbr 1000 ------- 1 1.0 5.0 12 12
+ 0.234 3 5 cbr 1000 ------- 1 1.0 5.0 12 12
- 0.234 3 5 cbr 1000 ------- 1 1.0 5.0 12 12
r 0.234 1 2 cbr 1000 ------- 1 1.0 5.0 15 15
+ 0.234 2 3 cbr 1000 ------- 1 1.0 5.0 15 15
- 0.234 2 3 cbr 1000 ------- 1 1.0 5.0 15 15
+ 0.236 1 2 cbr 1000 ------- 1 1.0 5.0 17 17
- 0.236 1 2 cbr 1000 ------- 1 1.0 5.0 17 17
r 0.24 3 5 cbr 1000 ------- 1 1.0 5.0 11 11
r 0.242 2 3 cbr 1000 ------- 1 1.0 5.0 13 13
+ 0.242 3 5 cbr 1000 ------- 1 1.0 5.0 13 13
- 0.242 3 5 cbr 1000 ------- 1 1.0 5.0 13 13
r 0.242 1 2 cbr 1000 ------- 1 1.0 5.0 16 16
+ 0.242 2 3 cbr 1000 ------- 1 1.0 5.0 16 16
- 0.242 2 3 cbr 1000 ------- 1 1.0 5.0 16 16
+ 0.244 1 2 cbr 1000 ------- 1 1.0 5.0 18 18
- 0.244 1 2 cbr 1000 ------- 1 1.0 5.0 18 18
r 0.248 3 5 cbr 1000 ------- 1 1.0 5.0 12 12
r 0.25 2 3 cbr 1000 ------- 1 1.0 5.0 14 14
+ 0.25 3 5 cbr 1000 ------- 1 1.0 5.0 14 14
- 0.25 3 5 cbr 1000 ------- 1 1.0 5.0 14 14
r 0.25 1 2 cbr 1000 ------- 1 1.0 5.0 17 17
+ 0.25 2 3 cbr 1000 ------- 1 1.0 5.0 17 17
- 0.25 2 3 cbr 1000 ------- 1 1.0 5.0 17 17
+ 0.252 1 2 cbr 1000 ------- 1 1.0 5.0 19 19
- 0.252 1 2 cbr 1000 ------- 1 1.0 5.0 19 19
r 0.256 3 5 cbr 1000 ------- 1 1.0 5.0 13 13
r 0.258 2 3 cbr 1000 ------- 1 1.0 5.0 15 15
+ 0.258 3 5 cbr 1000 ------- 1 1.0 5.0 15 15
- 0.258 3 5 cbr 1000 ------- 1 1.0 5.0 15 15
r 0.258 1 2 cbr 1000 ------- 1 1.0 5.0 18 18
+ 0.258 2 3 cbr 1000 ------- 1 1.0 5.0 18 18
- 0.258 2 3 cbr 1000 ------- 1 1.0 5.0 18 18
+ 0.26 1 2 cbr 1000 ------- 1 1.0 5.0 20 20
- 0.26 1 2 cbr 1000 ------- 1 1.0 5.0 20 20
r 0.264 3 5 cbr 1000 ------- 1 1.0 5.0 14 14
r 0.266 2 3 cbr 1000 ------- 1 1.0 5.0 16 16
+ 0.266 3 5 cbr 1000 ------- 1 1.0 5.0 16 16
- 0.266 3 5 cbr 1000 ------- 1 1.0 5.0 16 16
r 0.266 1 2 cbr 1000 ------- 1 1.0 5.0 19 19
+ 0.266 2 3 cbr 1000 ------- 1 1.0 5.0 19 19
- 0.266 2 3 cbr 1000 ------- 1 1.0 5.0 19 19
+ 0.268 1 2 cbr 1000 ------- 1 1.0 5.0 21 21
- 0.268 1 2 cbr 1000 ------- 1 1.0 5.0 21 21
r 0.272 3 5 cbr 1000 ------- 1 1.0 5.0 15 15
r 0.274 2 3 cbr 1000 ------- 1 1.0 5.0 17 17
+ 0.274 3 5 cbr 1000 ------- 1 1.0 5.0 17 17
- 0.274 3 5 cbr 1000 ------- 1 1.0 5.0 17 17
r 0.274 1 2 cbr 1000 ------- 1 1.0 5.0 20 20
+ 0.274 2 3 cbr 1000 ------- 1 1.0 5.0 20 20
- 0.274 2 3 cbr 1000 ------- 1 1.0 5.0 20 20
+ 0.276 1 2 cbr 1000 ------- 1 1.0 5.0 22 22
- 0.276 1 2 cbr 1000 ------- 1 1.0 5.0 22 22
r 0.28 3 5 cbr 1000 ------- 1 1.0 5.0 16 16
r 0.282 2 3 cbr 1000 ------- 1 1.0 5.0 18 18
+ 0.282 3 5 cbr 1000 ------- 1 1.0 5.0 18 18
- 0.282 3 5 cbr 1000 ------- 1 1.0 5.0 18 18
r 0.282 1 2 cbr 1000 ------- 1 1.0 5.0 21 21
+ 0.282 2 3 cbr 1000 ------- 1 1.0 5.0 21 21
- 0.282 2 3 cbr 1000 ------- 1 1.0 5.0 21 21
+ 0.284 1 2 cbr 1000 ------- 1 1.0 5.0 23 23
- 0.284 1 2 cbr 1000 ------- 1 1.0 5.0 23 23
r 0.288 3 5 cbr 1000 ------- 1 1.0 5.0 17 17
r 0.29 2 3 cbr 1000 ------- 1 1.0 5.0 19 19
+ 0.29 3 5 cbr 1000 ------- 1 1.0 5.0 19 19
- 0.29 3 5 cbr 1000 ------- 1 1.0 5.0 19 19
r 0.29 1 2 cbr 1000 ------- 1 1.0 5.0 22 22
+ 0.29 2 3 cbr 1000 ------- 1 1.0 5.0 22 22
- 0.29 2 3 cbr 1000 ------- 1 1.0 5.0 22 22
+ 0.292 1 2 cbr 1000 ------- 1 1.0 5.0 24 24
- 0.292 1 2 cbr 1000 ------- 1 1.0 5.0 24 24
r 0.296 3 5 cbr 1000 ------- 1 1.0 5.0 18 18
r 0.298 2 3 cbr 1000 ------- 1 1.0 5.0 20 20
+ 0.298 3 5 cbr 1000 ------- 1 1.0 5.0 20 20
- 0.298 3 5 cbr 1000 ------- 1 1.0 5.0 20 20
r 0.298 1 2 cbr 1000 ------- 1 1.0 5.0 23 23
+ 0.298 2 3 cbr 1000 ------- 1 1.0 5.0 23 23
- 0.298 2 3 cbr 1000 ------- 1 1.0 5.0 23 23
+ 0.3 1 2 cbr 1000 ------- 1 1.0 5.0 25 25
- 0.3 1 2 cbr 1000 ------- 1 1.0 5.0 25 25
r 0.304 3 5 cbr 1000 ------- 1 1.0 5.0 19 19
r 0.306 2 3 cbr 1000 ------- 1 1.0 5.0 21 21
+ 0.306 3 5 cbr 1000 ------- 1 1.0 5.0 21 21
- 0.306 3 5 cbr 1000 ------- 1 1.0 5.0 21 21
r 0.306 1 2 cbr 1000 ------- 1 1.0 5.0 24 24
+ 0.306 2 3 cbr 1000 ------- 1 1.0 5.0 24 24
- 0.306 2 3 cbr 1000 ------- 1 1.0 5.0 24 24
+ 0.308 1 2 cbr 1000 ------- 1 1.0 5.0 26 26
- 0.308 1 2 cbr 1000 ------- 1 1.0 5.0 26 26
r 0.312 3 5 cbr 1000 ------- 1 1.0 5.0 20 20
r 0.314 2 3 cbr 1000 ------- 1 1.0 5.0 22 22
+ 0.314 3 5 cbr 1000 ------- 1 1.0 5.0 22 22
- 0.314 3 5 cbr 1000 ------- 1 1.0 5.0 22 22
r 0.314 1 2 cbr 1000 ------- 1 1.0 5.0 25 25
+ 0.314 2 3 cbr 1000 ------- 1 1.0 5.0 25 25
- 0.314 2 3 cbr 1000 ------- 1 1.0 5.0 25 25
+ 0.316 1 2 cbr 1000 ------- 1 1.0 5.0 27 27
- 0.316 1 2 cbr 1000 ------- 1 1.0 5.0 27 27
r 0.32 3 5 cbr 1000 ------- 1 1.0 5.0 21 21
r 0.322 2 3 cbr 1000 ------- 1 1.0 5.0 23 23
+ 0.322 3 5 cbr 1000 ------- 1 1.0 5.0 23 23
- 0.322 3 5 cbr 1000 ------- 1 1.0 5.0 23 23
r 0.322 1 2 cbr 1000 ------- 1 1.0 5.0 26 26
+ 0.322 2 3 cbr 1000 ------- 1 1.0 5.0 26 26
- 0.322 2 3 cbr 1000 ------- 1 1.0 5.0 26 26
+ 0.324 1 2 cbr 1000 ------- 1 1.0 5.0 28 28
- 0.324 1 2 cbr 1000 ------- 1 1.0 5.0 28 28
r 0.328 3 5 cbr 1000 ------- 1 1.0 5.0 22 22
r 0.33 2 3 cbr 1000 ------- 1 1.0 5.0 24 24
+ 0.33 3 5 cbr 1000 ------- 1 1.0 5.0 24 24
- 0.33 3 5 cbr 1000 ------- 1 1.0 5.0 24 24
r 0.33 1 2 cbr 1000 ------- 1 1.0 5.0 27 27
+ 0.33 2 3 cbr 1000 ------- 1 1.0 5.0 27 27
- 0.33 2 3 cbr 1000 ------- 1 1.0 5.0 27 27
+ 0.332 1 2 cbr 1000 ------- 1 1.0 5.0 29 29
- 0.332 1 2 cbr 1000 ------- 1 1.0 5.0 29 29
r 0.336 3 5 cbr 1000 ------- 1 1.0 5.0 23 23
r 0.338 2 3 cbr 1000 ------- 1 1.0 5.0 25 25
+ 0.338 3 5 cbr 1000 ------- 1 1.0 5.0 25 25
- 0.338 3 5 cbr 1000 ------- 1 1.0 5.0 25 25
r 0.338 1 2 cbr 1000 ------- 1 1.0 5.0 28 28
+ 0.338 2 3 cbr 1000 ------- 1 1.0 5.0 28 28
- 0.338 2 3 cbr 1000 ------- 1 1.0 5.0 28 28
+ 0.34 1 2 cbr 1000 ------- 1 1.0 5.0 30 30
- 0.34 1 2 cbr 1000 ------- 1 1.0 5.0 30 30
r 0.344 3 5 cbr 1000 ------- 1 1.0 5.0 24 24
r 0.346 2 3 cbr 1000 ------- 1 1.0 5.0 26 26
+ 0.346 3 5 cbr 1000 ------- 1 1.0 5.0 26 26
- 0.346 3 5 cbr 1000 ------- 1 1.0 5.0 26 26
r 0.346 1 2 cbr 1000 ------- 1 1.0 5.0 29 29
+ 0.346 2 3 cbr 1000 ------- 1 1.0 5.0 29 29
- 0.346 2 3 cbr 1000 ------- 1 1.0 5.0 29 29
+ 0.348 1 2 cbr 1000 ------- 1 1.0 5.0 31 31
- 0.348 1 2 cbr 1000 ------- 1 1.0 5.0 31 31
r 0.352 3 5 cbr 1000 ------- 1 1.0 5.0 25 25
r 0.354 2 3 cbr 1000 ------- 1 1.0 5.0 27 27
+ 0.354 3 5 cbr 1000 ------- 1 1.0 5.0 27 27
- 0.354 3 5 cbr 1000 ------- 1 1.0 5.0 27 27
r 0.354 1 2 cbr 1000 ------- 1 1.0 5.0 30 30
+ 0.354 2 3 cbr 1000 ------- 1 1.0 5.0 30 30
- 0.354 2 3 cbr 1000 ------- 1 1.0 5.0 30 30
+ 0.356 1 2 cbr 1000 ------- 1 1.0 5.0 32 32
- 0.356 1 2 cbr 1000 ------- 1 1.0 5.0 32 32
r 0.36 3 5 cbr 1000 ------- 1 1.0 5.0 26 26
r 0.362 2 3 cbr 1000 ------- 1 1.0 5.0 28 28
+ 0.362 3 5 cbr 1000 ------- 1 1.0 5.0 28 28
- 0.362 3 5 cbr 1000 ------- 1 1.0 5.0 28 28
r 0.362 1 2 cbr 1000 ------- 1 1.0 5.0 31 31
+ 0.362 2 3 cbr 1000 ------- 1 1.0 5.0 31 31
- 0.362 2 3 cbr 1000 ------- 1 1.0 5.0 31 31
+ 0.364 1 2 cbr 1000 ------- 1 1.0 5.0 33 33
- 0.364 1 2 cbr 1000 ------- 1 1.0 5.0 33 33
r 0.368 3 5 cbr 1000 ------- 1 1.0 5.0 27 27
r 0.37 2 3 cbr 1000 ------- 1 1.0 5.0 29 29
+ 0.37 3 5 cbr 1000 ------- 1 1.0 5.0 29 29
- 0.37 3 5 cbr 1000 ------- 1 1.0 5.0 29 29
r 0.37 1 2 cbr 1000 ------- 1 1.0 5.0 32 32
+ 0.37 2 3 cbr 1000 ------- 1 1.0 5.0 32 32
- 0.37 2 3 cbr 1000 ------- 1 1.0 5.0 32 32
+ 0.372 1 2 cbr 1000 ------- 1 1.0 5.0 34 34
- 0.372 1 2 cbr 1000 ------- 1 1.0 5.0 34 34
r 0.376 3 5 cbr 1000 ------- 1 1.0 5.0 28 28
r 0.378 2 3 cbr 1000 ------- 1 1.0 5.0 30 30
+ 0.378 3 5 cbr 1000 ------- 1 1.0 5.0 30 30
- 0.378 3 5 cbr 1000 ------- 1 1.0 5.0 30 30
r 0.378 1 2 cbr 1000 ------- 1 1.0 5.0 33 33
+ 0.378 2 3 cbr 1000 ------- 1 1.0 5.0 33 33
- 0.378 2 3 cbr 1000 ------- 1 1.0 5.0 33 33
+ 0.38 1 2 cbr 1000 ------- 1 1.0 5.0 35 35
- 0.38 1 2 cbr 1000 ------- 1 1.0 5.0 35 35
r 0.384 3 5 cbr 1000 ------- 1 1.0 5.0 29 29
r 0.386 2 3 cbr 1000 ------- 1 1.0 5.0 31 31
+ 0.386 3 5 cbr 1000 ------- 1 1.0 5.0 31 31
- 0.386 3 5 cbr 1000 ------- 1 1.0 5.0 31 31
r 0.386 1 2 cbr 1000 ------- 1 1.0 5.0 34 34
+ 0.386 2 3 cbr 1000 ------- 1 1.0 5.0 34 34
- 0.386 2 3 cbr 1000 ------- 1 1.0 5.0 34 34
+ 0.388 1 2 cbr 1000 ------- 1 1.0 5.0 36 36
- 0.388 1 2 cbr 1000 ------- 1 1.0 5.0 36 36
r 0.392 3 5 cbr 1000 ------- 1 1.0 5.0 30 30
r 0.394 2 3 cbr 1000 ------- 1 1.0 5.0 32 32
+ 0.394 3 5 cbr 1000 ------- 1 1.0 5.0 32 32
- 0.394 3 5 cbr 1000 ------- 1 1.0 5.0 32 32
r 0.394 1 2 cbr 1000 ------- 1 1.0 5.0 35 35
+ 0.394 2 3 cbr 1000 ------- 1 1.0 5.0 35 35
- 0.394 2 3 cbr 1000 ------- 1 1.0 5.0 35 35
+ 0.396 1 2 cbr 1000 ------- 1 1.0 5.0 37 37
- 0.396 1 2 cbr 1000 ------- 1 1.0 5.0 37 37
r 0.4 3 5 cbr 1000 ------- 1 1.0 5.0 31 31
r 0.402 2 3 cbr 1000 ------- 1 1.0 5.0 33 33
+ 0.402 3 5 cbr 1000 ------- 1 1.0 5.0 33 33
- 0.402 3 5 cbr 1000 ------- 1 1.0 5.0 33 33
r 0.402 1 2 cbr 1000 ------- 1 1.0 5.0 36 36
+ 0.402 2 3 cbr 1000 ------- 1 1.0 5.0 36 36
- 0.402 2 3 cbr 1000 ------- 1 1.0 5.0 36 36
+ 0.404 1 2 cbr 1000 ------- 1 1.0 5.0 38 38
- 0.404 1 2 cbr 1000 ------- 1 1.0 5.0 38 38
r 0.408 3 5 cbr 1000 ------- 1 1.0 5.0 32 32
r 0.41 2 3 cbr 1000 ------- 1 1.0 5.0 34 34
+ 0.41 3 5 cbr 1000 ------- 1 1.0 5.0 34 34
- 0.41 3 5 cbr 1000 ------- 1 1.0 5.0 34 34
r 0.41 1 2 cbr 1000 ------- 1 1.0 5.0 37 37
+ 0.41 2 3 cbr 1000 ------- 1 1.0 5.0 37 37
- 0.41 2 3 cbr 1000 ------- 1 1.0 5.0 37 37
+ 0.412 1 2 cbr 1000 ------- 1 1.0 5.0 39 39
- 0.412 1 2 cbr 1000 ------- 1 1.0 5.0 39 39
r 0.416 3 5 cbr 1000 ------- 1 1.0 5.0 33 33
r 0.418 2 3 cbr 1000 ------- 1 1.0 5.0 35 35
+ 0.418 3 5 cbr 1000 ------- 1 1.0 5.0 35 35
- 0.418 3 5 cbr 1000 ------- 1 1.0 5.0 35 35
r 0.418 1 2 cbr 1000 ------- 1 1.0 5.0 38 38
+ 0.418 2 3 cbr 1000 ------- 1 1.0 5.0 38 38
- 0.418 2 3 cbr 1000 ------- 1 1.0 5.0 38 38
+ 0.42 1 2 cbr 1000 ------- 1 1.0 5.0 40 40
- 0.42 1 2 cbr 1000 ------- 1 1.0 5.0 40 40
r 0.424 3 5 cbr 1000 ------- 1 1.0 5.0 34 34
r 0.426 2 3 cbr 1000 ------- 1 1.0 5.0 36 36
+ 0.426 3 5 cbr 1000 ------- 1 1.0 5.0 36 36
- 0.426 3 5 cbr 1000 ------- 1 1.0 5.0 36 36
r 0.426 1 2 cbr 1000 ------- 1 1.0 5.0 39 39
+ 0.426 2 3 cbr 1000 ------- 1 1.0 5.0 39 39
- 0.426 2 3 cbr 1000 ------- 1 1.0 5.0 39 39
+ 0.428 1 2 cbr 1000 ------- 1 1.0 5.0 41 41
- 0.428 1 2 cbr 1000 ------- 1 1.0 5.0 41 41
r 0.432 3 5 cbr 1000 ------- 1 1.0 5.0 35 35
r 0.434 2 3 cbr 1000 ------- 1 1.0 5.0 37 37
+ 0.434 3 5 cbr 1000 ------- 1 1.0 5.0 37 37
- 0.434 3 5 cbr 1000 ------- 1 1.0 5.0 37 37
r 0.434 1 2 cbr 1000 ------- 1 1.0 5.0 40 40
+ 0.434 2 3 cbr 1000 ------- 1 1.0 5.0 40 40
- 0.434 2 3 cbr 1000 ------- 1 1.0 5.0 40 40
+ 0.436 1 2 cbr 1000 ------- 1 1.0 5.0 42 42
- 0.436 1 2 cbr 1000 ------- 1 1.0 5.0 42 42
r 0.44 3 5 cbr 1000 ------- 1 1.0 5.0 36 36
r 0.442 2 3 cbr 1000 ------- 1 1.0 5.0 38 38
+ 0.442 3 5 cbr 1000 ------- 1 1.0 5.0 38 38
- 0.442 3 5 cbr 1000 ------- 1 1.0 5.0 38 38
r 0.442 1 2 cbr 1000 ------- 1 1.0 5.0 41 41
+ 0.442 2 3 cbr 1000 ------- 1 1.0 5.0 41 41
- 0.442 2 3 cbr 1000 ------- 1 1.0 5.0 41 41
+ 0.444 1 2 cbr 1000 ------- 1 1.0 5.0 43 43
- 0.444 1 2 cbr 1000 ------- 1 1.0 5.0 43 43
r 0.448 3 5 cbr 1000 ------- 1 1.0 5.0 37 37
r 0.45 2 3 cbr 1000 ------- 1 1.0 5.0 39 39
+ 0.45 3 5 cbr 1000 ------- 1 1.0 5.0 39 39
- 0.45 3 5 cbr 1000 ------- 1 1.0 5.0 39 39
r 0.45 1 2 cbr 1000 ------- 1 1.0 5.0 42 42
+ 0.45 2 3 cbr 1000 ------- 1 1.0 5.0 42 42
- 0.45 2 3 cbr 1000 ------- 1 1.0 5.0 42 42
+ 0.452 1 2 cbr 1000 ------- 1 1.0 5.0 44 44
- 0.452 1 2 cbr 1000 ------- 1 1.0 5.0 44 44
r 0.456 3 5 cbr 1000 ------- 1 1.0 5.0 38 38
r 0.458 2 3 cbr 1000 ------- 1 1.0 5.0 40 40
+ 0.458 3 5 cbr 1000 ------- 1 1.0 5.0 40 40
- 0.458 3 5 cbr 1000 ------- 1 1.0 5.0 40 40
r 0.458 1 2 cbr 1000 ------- 1 1.0 5.0 43 43
+ 0.458 2 3 cbr 1000 ------- 1 1.0 5.0 43 43
- 0.458 2 3 cbr 1000 ------- 1 1.0 5.0 43 43
+ 0.46 1 2 cbr 1000 ------- 1 1.0 5.0 45 45
- 0.46 1 2 cbr 1000 ------- 1 1.0 5.0 45 45
r 0.464 3 5 cbr 1000 ------- 1 1.0 5.0 39 39
r 0.466 2 3 cbr 1000 ------- 1 1.0 5.0 41 41
+ 0.466 3 5 cbr 1000 ------- 1 1.0 5.0 41 41
- 0.466 3 5 cbr 1000 ------- 1 1.0 5.0 41 41
r 0.466 1 2 cbr 1000 ------- 1 1.0 5.0 44 44
+ 0.466 2 3 cbr 1000 ------- 1 1.0 5.0 44 44
- 0.466 2 3 cbr 1000 ------- 1 1.0 5.0 44 44
+ 0.468 1 2 cbr 1000 ------- 1 1.0 5.0 46 46
- 0.468 1 2 cbr 1000 ------- 1 1.0 5.0 46 46
r 0.472 3 5 cbr 1000 ------- 1 1.0 5.0 40 40
r 0.474 2 3 cbr 1000 ------- 1 1.0 5.0 42 42
+ 0.474 3 5 cbr 1000 ------- 1 1.0 5.0 42 42
- 0.474 3 5 cbr 1000 ------- 1 1.0 5.0 42 42
r 0.474 1 2 cbr 1000 ------- 1 1.0 5.0 45 45
+ 0.474 2 3 cbr 1000 ------- 1 1.0 5.0 45 45
- 0.474 2 3 cbr 1000 ------- 1 1.0 5.0 45 45
+ 0.476 1 2 cbr 1000 ------- 1 1.0 5.0 47 47
- 0.476 1 2 cbr 1000 ------- 1 1.0 5.0 47 47
r 0.48 3 5 cbr 1000 ------- 1 1.0 5.0 41 41
r 0.482 2 3 cbr 1000 ------- 1 1.0 5.0 43 43
+ 0.482 3 5 cbr 1000 ------- 1 1.0 5.0 43 43
- 0.482 3 5 cbr 1000 ------- 1 1.0 5.0 43 43
r 0.482 1 2 cbr 1000 ------- 1 1.0 5.0 46 46
+ 0.482 2 3 cbr 1000 ------- 1 1.0 5.0 46 46
- 0.482 2 3 cbr 1000 ------- 1 1.0 5.0 46 46
+ 0.484 1 2 cbr 1000 ------- 1 1.0 5.0 48 48
- 0.484 1 2 cbr 1000 ------- 1 1.0 5.0 48 48
r 0.488 3 5 cbr 1000 ------- 1 1.0 5.0 42 42
r 0.49 2 3 cbr 1000 ------- 1 1.0 5.0 44 44
+ 0.49 3 5 cbr 1000 ------- 1 1.0 5.0 44 44
- 0.49 3 5 cbr 1000 ------- 1 1.0 5.0 44 44
r 0.49 1 2 cbr 1000 ------- 1 1.0 5.0 47 47
+ 0.49 2 3 cbr 1000 ------- 1 1.0 5.0 47 47
- 0.49 2 3 cbr 1000 ------- 1 1.0 5.0 47 47
+ 0.492 1 2 cbr 1000 ------- 1 1.0 5.0 49 49
- 0.492 1 2 cbr 1000 ------- 1 1.0 5.0 49 49
r 0.496 3 5 cbr 1000 ------- 1 1.0 5.0 43 43
r 0.498 2 3 cbr 1000 ------- 1 1.0 5.0 45 45
+ 0.498 3 5 cbr 1000 ------- 1 1.0 5.0 45 45
- 0.498 3 5 cbr 1000 ------- 1 1.0 5.0 45 45
r 0.498 1 2 cbr 1000 ------- 1 1.0 5.0 48 48
+ 0.498 2 3 cbr 1000 ------- 1 1.0 5.0 48 48
- 0.498 2 3 cbr 1000 ------- 1 1.0 5.0 48 48
+ 0.5 1 2 cbr 1000 ------- 1 1.0 5.0 50 50
- 0.5 1 2 cbr 1000 ------- 1 1.0 5.0 50 50
r 0.504 3 5 cbr 1000 ------- 1 1.0 5.0 44 44
r 0.506 2 3 cbr 1000 ------- 1 1.0 5.0 46 46
+ 0.506 3 5 cbr 1000 ------- 1 1.0 5.0 46 46
- 0.506 3 5 cbr 1000 ------- 1 1.0 5.0 46 46
r 0.506 1 2 cbr 1000 ------- 1 1.0 5.0 49 49
+ 0.506 2 3 cbr 1000 ------- 1 1.0 5.0 49 49
- 0.506 2 3 cbr 1000 ------- 1 1.0 5.0 49 49
+ 0.508 1 2 cbr 1000 ------- 1 1.0 5.0 51 51
- 0.508 1 2 cbr 1000 ------- 1 1.0 5.0 51 51
r 0.512 3 5 cbr 1000 ------- 1 1.0 5.0 45 45
r 0.514 2 3 cbr 1000 ------- 1 1.0 5.0 47 47
+ 0.514 3 5 cbr 1000 ------- 1 1.0 5.0 47 47
- 0.514 3 5 cbr 1000 ------- 1 1.0 5.0 47 47
r 0.514 1 2 cbr 1000 ------- 1 1.0 5.0 50 50
+ 0.514 2 3 cbr 1000 ------- 1 1.0 5.0 50 50
- 0.514 2 3 cbr 1000 ------- 1 1.0 5.0 50 50
+ 0.516 1 2 cbr 1000 ------- 1 1.0 5.0 52 52
- 0.516 1 2 cbr 1000 ------- 1 1.0 5.0 52 52
r 0.52 3 5 cbr 1000 ------- 1 1.0 5.0 46 46
r 0.522 2 3 cbr 1000 ------- 1 1.0 5.0 48 48
+ 0.522 3 5 cbr 1000 ------- 1 1.0 5.0 48 48
- 0.522 3 5 cbr 1000 ------- 1 1.0 5.0 48 48
r 0.522 1 2 cbr 1000 ------- 1 1.0 5.0 51 51
+ 0.522 2 3 cbr 1000 ------- 1 1.0 5.0 51 51
- 0.522 2 3 cbr 1000 ------- 1 1.0 5.0 51 51
+ 0.524 1 2 cbr 1000 ------- 1 1.0 5.0 53 53
- 0.524 1 2 cbr 1000 ------- 1 1.0 5.0 53 53
r 0.528 3 5 cbr 1000 ------- 1 1.0 5.0 47 47
r 0.53 2 3 cbr 1000 ------- 1 1.0 5.0 49 49
+ 0.53 3 5 cbr 1000 ------- 1 1.0 5.0 49 49
- 0.53 3 5 cbr 1000 ------- 1 1.0 5.0 49 49
r 0.53 1 2 cbr 1000 ------- 1 1.0 5.0 52 52
+ 0.53 2 3 cbr 1000 ------- 1 1.0 5.0 52 52
- 0.53 2 3 cbr 1000 ------- 1 1.0 5.0 52 52
+ 0.532 1 2 cbr 1000 ------- 1 1.0 5.0 54 54
- 0.532 1 2 cbr 1000 ------- 1 1.0 5.0 54 54
r 0.536 3 5 cbr 1000 ------- 1 1.0 5.0 48 48
r 0.538 2 3 cbr 1000 ------- 1 1.0 5.0 50 50
+ 0.538 3 5 cbr 1000 ------- 1 1.0 5.0 50 50
- 0.538 3 5 cbr 1000 ------- 1 1.0 5.0 50 50
r 0.538 1 2 cbr 1000 ------- 1 1.0 5.0 53 53
+ 0.538 2 3 cbr 1000 ------- 1 1.0 5.0 53 53
- 0.538 2 3 cbr 1000 ------- 1 1.0 5.0 53 53
+ 0.54 1 2 cbr 1000 ------- 1 1.0 5.0 55 55
- 0.54 1 2 cbr 1000 ------- 1 1.0 5.0 55 55
r 0.544 3 5 cbr 1000 ------- 1 1.0 5.0 49 49
r 0.546 2 3 cbr 1000 ------- 1 1.0 5.0 51 51
+ 0.546 3 5 cbr 1000 ------- 1 1.0 5.0 51 51
- 0.546 3 5 cbr 1000 ------- 1 1.0 5.0 51 51
r 0.546 1 2 cbr 1000 ------- 1 1.0 5.0 54 54
+ 0.546 2 3 cbr 1000 ------- 1 1.0 5.0 54 54
- 0.546 2 3 cbr 1000 ------- 1 1.0 5.0 54 54
+ 0.548 1 2 cbr 1000 ------- 1 1.0 5.0 56 56
- 0.548 1 2 cbr 1000 ------- 1 1.0 5.0 56 56
r 0.552 3 5 cbr 1000 ------- 1 1.0 5.0 50 50
r 0.554 2 3 cbr 1000 ------- 1 1.0 5.0 52 52
+ 0.554 3 5 cbr 1000 ------- 1 1.0 5.0 52 52
- 0.554 3 5 cbr 1000 ------- 1 1.0 5.0 52 52
r 0.554 1 2 cbr 1000 ------- 1 1.0 5.0 55 55
+ 0.554 2 3 cbr 1000 ------- 1 1.0 5.0 55 55
- 0.554 2 3 cbr 1000 ------- 1 1.0 5.0 55 55
+ 0.556 1 2 cbr 1000 ------- 1 1.0 5.0 57 57
- 0.556 1 2 cbr 1000 ------- 1 1.0 5.0 57 57
r 0.56 3 5 cbr 1000 ------- 1 1.0 5.0 51 51
r 0.562 2 3 cbr 1000 ------- 1 1.0 5.0 53 53
+ 0.562 3 5 cbr 1000 ------- 1 1.0 5.0 53 53
- 0.562 3 5 cbr 1000 ------- 1 1.0 5.0 53 53
r 0.562 1 2 cbr 1000 ------- 1 1.0 5.0 56 56
+ 0.562 2 3 cbr 1000 ------- 1 1.0 5.0 56 56
- 0.562 2 3 cbr 1000 ------- 1 1.0 5.0 56 56
+ 0.564 1 2 cbr 1000 ------- 1 1.0 5.0 58 58
- 0.564 1 2 cbr 1000 ------- 1 1.0 5.0 58 58
r 0.568 3 5 cbr 1000 ------- 1 1.0 5.0 52 52
r 0.57 2 3 cbr 1000 ------- 1 1.0 5.0 54 54
+ 0.57 3 5 cbr 1000 ------- 1 1.0 5.0 54 54
- 0.57 3 5 cbr 1000 ------- 1 1.0 5.0 54 54
r 0.57 1 2 cbr 1000 ------- 1 1.0 5.0 57 57
+ 0.57 2 3 cbr 1000 ------- 1 1.0 5.0 57 57
- 0.57 2 3 cbr 1000 ------- 1 1.0 5.0 57 57
+ 0.572 1 2 cbr 1000 ------- 1 1.0 5.0 59 59
- 0.572 1 2 cbr 1000 ------- 1 1.0 5.0 59 59
r 0.576 3 5 cbr 1000 ------- 1 1.0 5.0 53 53
r 0.578 2 3 cbr 1000 ------- 1 1.0 5.0 55 55
+ 0.578 3 5 cbr 1000 ------- 1 1.0 5.0 55 55
- 0.578 3 5 cbr 1000 ------- 1 1.0 5.0 55 55
r 0.578 1 2 cbr 1000 ------- 1 1.0 5.0 58 58
+ 0.578 2 3 cbr 1000 ------- 1 1.0 5.0 58 58
- 0.578 2 3 cbr 1000 ------- 1 1.0 5.0 58 58
+ 0.58 1 2 cbr 1000 ------- 1 1.0 5.0 60 60
- 0.58 1 2 cbr 1000 ------- 1 1.0 5.0 60 60
r 0.584 3 5 cbr 1000 ------- 1 1.0 5.0 54 54
r 0.586 2 3 cbr 1000 ------- 1 1.0 5.0 56 56
+ 0.586 3 5 cbr 1000 ------- 1 1.0 5.0 56 56
- 0.586 3 5 cbr 1000 ------- 1 1.0 5.0 56 56
r 0.586 1 2 cbr 1000 ------- 1 1.0 5.0 59 59
+ 0.586 2 3 cbr 1000 ------- 1 1.0 5.0 59 59
- 0.586 2 3 cbr 1000 ------- 1 1.0 5.0 59 59
+ 0.588 1 2 cbr 1000 ------- 1 1.0 5.0 61 61
- 0.588 1 2 cbr 1000 ------- 1 1.0 5.0 61 61
r 0.592 3 5 cbr 1000 ------- 1 1.0 5.0 55 55
r 0.594 2 3 cbr 1000 ------- 1 1.0 5.0 57 57
+ 0.594 3 5 cbr 1000 ------- 1 1.0 5.0 57 57
- 0.594 3 5 cbr 1000 ------- 1 1.0 5.0 57 57
r 0.594 1 2 cbr 1000 ------- 1 1.0 5.0 60 60
+ 0.594 2 3 cbr 1000 ------- 1 1.0 5.0 60 60
- 0.594 2 3 cbr 1000 ------- 1 1.0 5.0 60 60
+ 0.596 1 2 cbr 1000 ------- 1 1.0 5.0 62 62
- 0.596 1 2 cbr 1000 ------- 1 1.0 5.0 62 62
r 0.6 3 5 cbr 1000 ------- 1 1.0 5.0 56 56
r 0.602 2 3 cbr 1000 ------- 1 1.0 5.0 58 58
+ 0.602 3 5 cbr 1000 ------- 1 1.0 5.0 58 58
- 0.602 3 5 cbr 1000 ------- 1 1.0 5.0 58 58
r 0.602 1 2 cbr 1000 ------- 1 1.0 5.0 61 61
+ 0.602 2 3 cbr 1000 ------- 1 1.0 5.0 61 61
- 0.602 2 3 cbr 1000 ------- 1 1.0 5.0 61 61
+ 0.604 1 2 cbr 1000 ------- 1 1.0 5.0 63 63
- 0.604 1 2 cbr 1000 ------- 1 1.0 5.0 63 63
r 0.608 3 5 cbr 1000 ------- 1 1.0 5.0 57 57
r 0.61 2 3 cbr 1000 ------- 1 1.0 5.0 59 59
+ 0.61 3 5 cbr 1000 ------- 1 1.0 5.0 59 59
- 0.61 3 5 cbr 1000 ------- 1 1.0 5.0 59 59
r 0.61 1 2 cbr 1000 ------- 1 1.0 5.0 62 62
+ 0.61 2 3 cbr 1000 ------- 1 1.0 5.0 62 62
- 0.61 2 3 cbr 1000 ------- 1 1.0 5.0 62 62
+ 0.612 1 2 cbr 1000 ------- 1 1.0 5.0 64 64
- 0.612 1 2 cbr 1000 ------- 1 1.0 5.0 64 64
r 0.616 3 5 cbr 1000 ------- 1 1.0 5.0 58 58
r 0.618 2 3 cbr 1000 ------- 1 1.0 5.0 60 60
+ 0.618 3 5 cbr 1000 ------- 1 1.0 5.0 60 60
- 0.618 3 5 cbr 1000 ------- 1 1.0 5.0 60 60
r 0.618 1 2 cbr 1000 ------- 1 1.0 5.0 63 63
+ 0.618 2 3 cbr 1000 ------- 1 1.0 5.0 63 63
- 0.618 2 3 cbr 1000 ------- 1 1.0 5.0 63 63
+ 0.62 1 2 cbr 1000 ------- 1 1.0 5.0 65 65
- 0.62 1 2 cbr 1000 ------- 1 1.0 5.0 65 65
r 0.624 3 5 cbr 1000 ------- 1 1.0 5.0 59 59
r 0.626 2 3 cbr 1000 ------- 1 1.0 5.0 61 61
+ 0.626 3 5 cbr 1000 ------- 1 1.0 5.0 61 61
- 0.626 3 5 cbr 1000 ------- 1 1.0 5.0 61 61
r 0.626 1 2 cbr 1000 ------- 1 1.0 5.0 64 64
+ 0.626 2 3 cbr 1000 ------- 1 1.0 5.0 64 64
- 0.626 2 3 cbr 1000 ------- 1 1.0 5.0 64 64
+ 0.628 1 2 cbr 1000 ------- 1 1.0 5.0 66 66
- 0.628 1 2 cbr 1000 ------- 1 1.0 5.0 66 66
r 0.632 3 5 cbr 1000 ------- 1 1.0 5.0 60 60
r 0.634 2 3 cbr 1000 ------- 1 1.0 5.0 62 62
+ 0.634 3 5 cbr 1000 ------- 1 1.0 5.0 62 62
- 0.634 3 5 cbr 1000 ------- 1 1.0 5.0 62 62
r 0.634 1 2 cbr 1000 ------- 1 1.0 5.0 65 65
+ 0.634 2 3 cbr 1000 ------- 1 1.0 5.0 65 65
- 0.634 2 3 cbr 1000 ------- 1 1.0 5.0 65 65
+ 0.636 1 2 cbr 1000 ------- 1 1.0 5.0 67 67
- 0.636 1 2 cbr 1000 ------- 1 1.0 5.0 67 67
r 0.64 3 5 cbr 1000 ------- 1 1.0 5.0 61 61
r 0.642 2 3 cbr 1000 ------- 1 1.0 5.0 63 63
+ 0.642 3 5 cbr 1000 ------- 1 1.0 5.0 63 63
- 0.642 3 5 cbr 1000 ------- 1 1.0 5.0 63 63
r 0.642 1 2 cbr 1000 ------- 1 1.0 5.0 66 66
+ 0.642 2 3 cbr 1000 ------- 1 1.0 5.0 66 66
- 0.642 2 3 cbr 1000 ------- 1 1.0 5.0 66 66
+ 0.644 1 2 cbr 1000 ------- 1 1.0 5.0 68 68
- 0.644 1 2 cbr 1000 ------- 1 1.0 5.0 68 68
r 0.648 3 5 cbr 1000 ------- 1 1.0 5.0 62 62
r 0.65 2 3 cbr 1000 ------- 1 1.0 5.0 64 64
+ 0.65 3 5 cbr 1000 ------- 1 1.0 5.0 64 64
- 0.65 3 5 cbr 1000 ------- 1 1.0 5.0 64 64
r 0.65 1 2 cbr 1000 ------- 1 1.0 5.0 67 67
+ 0.65 2 3 cbr 1000 ------- 1 1.0 5.0 67 67
- 0.65 2 3 cbr 1000 ------- 1 1.0 5.0 67 67
+ 0.652 1 2 cbr 1000 ------- 1 1.0 5.0 69 69
- 0.652 1 2 cbr 1000 ------- 1 1.0 5.0 69 69
r 0.656 3 5 cbr 1000 ------- 1 1.0 5.0 63 63
r 0.658 2 3 cbr 1000 ------- 1 1.0 5.0 65 65
+ 0.658 3 5 cbr 1000 ------- 1 1.0 5.0 65 65
- 0.658 3 5 cbr 1000 ------- 1 1.0 5.0 65 65
r 0.658 1 2 cbr 1000 ------- 1 1.0 5.0 68 68
+ 0.658 2 3 cbr 1000 ------- 1 1.0 5.0 68 68
- 0.658 2 3 cbr 1000 ------- 1 1.0 5.0 68 68
+ 0.66 1 2 cbr 1000 ------- 1 1.0 5.0 70 70
- 0.66 1 2 cbr 1000 ------- 1 1.0 5.0 70 70
r 0.664 3 5 cbr 1000 ------- 1 1.0 5.0 64 64
r 0.666 2 3 cbr 1000 ------- 1 1.0 5.0 66 66
+ 0.666 3 5 cbr 1000 ------- 1 1.0 5.0 66 66
- 0.666 3 5 cbr 1000 ------- 1 1.0 5.0 66 66
r 0.666 1 2 cbr 1000 ------- 1 1.0 5.0 69 69
+ 0.666 2 3 cbr 1000 ------- 1 1.0 5.0 69 69
- 0.666 2 3 cbr 1000 ------- 1 1.0 5.0 69 69
+ 0.668 1 2 cbr 1000 ------- 1 1.0 5.0 71 71
- 0.668 1 2 cbr 1000 ------- 1 1.0 5.0 71 71
r 0.672 3 5 cbr 1000 ------- 1 1.0 5.0 65 65
r 0.674 2 3 cbr 1000 ------- 1 1.0 5.0 67 67
+ 0.674 3 5 cbr 1000 ------- 1 1.0 5.0 67 67
- 0.674 3 5 cbr 1000 ------- 1 1.0 5.0 67 67
r 0.674 1 2 cbr 1000 ------- 1 1.0 5.0 70 70
+ 0.674 2 3 cbr 1000 ------- 1 1.0 5.0 70 70
- 0.674 2 3 cbr 1000 ------- 1 1.0 5.0 70 70
+ 0.676 1 2 cbr 1000 ------- 1 1.0 5.0 72 72
- 0.676 1 2 cbr 1000 ------- 1 1.0 5.0 72 72
r 0.68 3 5 cbr 1000 ------- 1 1.0 5.0 66 66
r 0.682 2 3 cbr 1000 ------- 1 1.0 5.0 68 68
+ 0.682 3 5 cbr 1000 ------- 1 1.0 5.0 68 68
- 0.682 3 5 cbr 1000 ------- 1 1.0 5.0 68 68
r 0.682 1 2 cbr 1000 ------- 1 1.0 5.0 71 71
+ 0.682 2 3 cbr 1000 ------- 1 1.0 5.0 71 71
- 0.682 2 3 cbr 1000 ------- 1 1.0 5.0 71 71
+ 0.684 1 2 cbr 1000 ------- 1 1.0 5.0 73 73
- 0.684 1 2 cbr 1000 ------- 1 1.0 5.0 73 73
r 0.688 3 5 cbr 1000 ------- 1 1.0 5.0 67 67
r 0.69 2 3 cbr 1000 ------- 1 1.0 5.0 69 69
+ 0.69 3 5 cbr 1000 ------- 1 1.0 5.0 69 69
- 0.69 3 5 cbr 1000 ------- 1 1.0 5.0 69 69
r 0.69 1 2 cbr 1000 ------- 1 1.0 5.0 72 72
+ 0.69 2 3 cbr 1000 ------- 1 1.0 5.0 72 72
- 0.69 2 3 cbr 1000 ------- 1 1.0 5.0 72 72
+ 0.692 1 2 cbr 1000 ------- 1 1.0 5.0 74 74
- 0.692 1 2 cbr 1000 ------- 1 1.0 5.0 74 74
r 0.696 3 5 cbr 1000 ------- 1 1.0 5.0 68 68
r 0.698 2 3 cbr 1000 ------- 1 1.0 5.0 70 70
+ 0.698 3 5 cbr 1000 ------- 1 1.0 5.0 70 70
- 0.698 3 5 cbr 1000 ------- 1 1.0 5.0 70 70
r 0.698 1 2 cbr 1000 ------- 1 1.0 5.0 73 73
+ 0.698 2 3 cbr 1000 ------- 1 1.0 5.0 73 73
- 0.698 2 3 cbr 1000 ------- 1 1.0 5.0 73 73
+ 0.7 1 2 cbr 1000 ------- 1 1.0 5.0 75 75
- 0.7 1 2 cbr 1000 ------- 1 1.0 5.0 75 75
r 0.704 3 5 cbr 1000 ------- 1 1.0 5.0 69 69
r 0.706 2 3 cbr 1000 ------- 1 1.0 5.0 71 71
+ 0.706 3 5 cbr 1000 ------- 1 1.0 5.0 71 71
- 0.706 3 5 cbr 1000 ------- 1 1.0 5.0 71 71
r 0.706 1 2 cbr 1000 ------- 1 1.0 5.0 74 74
+ 0.706 2 3 cbr 1000 ------- 1 1.0 5.0 74 74
- 0.706 2 3 cbr 1000 ------- 1 1.0 5.0 74 74
+ 0.708 1 2 cbr 1000 ------- 1 1.0 5.0 76 76
- 0.708 1 2 cbr 1000 ------- 1 1.0 5.0 76 76
r 0.712 3 5 cbr 1000 ------- 1 1.0 5.0 70 70
r 0.714 2 3 cbr 1000 ------- 1 1.0 5.0 72 72
+ 0.714 3 5 cbr 1000 ------- 1 1.0 5.0 72 72
- 0.714 3 5 cbr 1000 ------- 1 1.0 5.0 72 72
r 0.714 1 2 cbr 1000 ------- 1 1.0 5.0 75 75
+ 0.714 2 3 cbr 1000 ------- 1 1.0 5.0 75 75
- 0.714 2 3 cbr 1000 ------- 1 1.0 5.0 75 75
+ 0.716 1 2 cbr 1000 ------- 1 1.0 5.0 77 77