+ 0.1 0 1 tcp 40 ------- 1 0.0 1.0 0 0
- 0.1 0 1 tcp 40 ------- 1 0.0 1.0 0 0
r 0.12016 0 1 tcp 40 ------- 1 0.0 1.0 0 0
+ 0.12016 1 0 ack 40 ------- 1 1.0 0.0 0 1
- 0.12016 1 0 ack 40 ------- 1 1.0 0.0 0 1
r 0.14032 1 0 ack 40 ------- 1 1.0 0.0 0 1
+ 0.14032 0 1 tcp 1040 ------- 1 0.0 1.0 1 2
- 0.14032 0 1 tcp 1040 ------- 1 0.0 1.0 1 2
+ 0.14032 0 1 tcp 1040 ------- 1 0.0 1.0 2 3
- 0.14448 0 1 tcp 1040 ------- 1 0.0 1.0 2 3
r 0.16448 0 1 tcp 1040 ------- 1 0.0 1.0 1 2
+ 0.16448 1 0 ack 40 ------- 1 1.0 0.0 1 4
- 0.16448 1 0 ack 40 ------- 1 1.0 0.0 1 4
r 0.16864 0 1 tcp 1040 ------- 1 0.0 1.0 2 3
+ 0.16864 1 0 ack 40 ------- 1 1.0 0.0 2 5
- 0.16864 1 0 ack 40 ------- 1 1.0 0.0 2 5
r 0.18464 1 0 ack 40 ------- 1 1.0 0.0 1 4
+ 0.18464 0 1 tcp 1040 ------- 1 0.0 1.0 3 6
- 0.18464 0 1 tcp 1040 ------- 1 0.0 1.0 3 6
+ 0.18464 0 1 tcp 1040 ------- 1 0.0 1.0 4 7
r 0.1888 1 0 ack 40 ------- 1 1.0 0.0 2 5
+ 0.1888 0 1 tcp 1040 ------- 1 0.0 1.0 5 8
+ 0.1888 0 1 tcp 1040 ------- 1 0.0 1.0 6 9
- 0.1888 0 1 tcp 1040 ------- 1 0.0 1.0 4 7
- 0.19296 0 1 tcp 1040 ------- 1 0.0 1.0 5 8
- 0.19712 0 1 tcp 1040 ------- 1 0.0 1.0 6 9
r 0.2088 0 1 tcp 1040 ------- 1 0.0 1.0 3 6
+ 0.2088 1 0 ack 40 ------- 1 1.0 0.0 3 10
- 0.2088 1 0 ack 40 ------- 1 1.0 0.0 3 10
r 0.21296 0 1 tcp 1040 ------- 1 0.0 1.0 4 7
+ 0.21296 1 0 ack 40 ------- 1 1.0 0.0 4 11
- 0.21296 1 0 ack 40 ------- 1 1.0 0.0 4 11
r 0.21712 0 1 tcp 1040 ------- 1 0.0 1.0 5 8
+ 0.21712 1 0 ack 40 ------- 1 1.0 0.0 5 12
- 0.21712 1 0 ack 40 ------- 1 1.0 0.0 5 12
r 0.22128 0 1 tcp 1040 ------- 1 0.0 1.0 6 9
+ 0.22128 1 0 ack 40 ------- 1 1.0 0.0 6 13
- 0.22128 1 0 ack 40 ------- 1 1.0 0.0 6 13
r 0.22896 1 0 ack 40 ------- 1 1.0 0.0 3 10
+ 0.22896 0 1 tcp 1040 ------- 1 0.0 1.0 7 14
- 0.22896 0 1 tcp 1040 ------- 1 0.0 1.0 7 14
+ 0.22896 0 1 tcp 1040 ------- 1 0.0 1.0 8 15
r 0.23312 1 0 ack 40 ------- 1 1.0 0.0 4 11
+ 0.23312 0 1 tcp 1040 ------- 1 0.0 1.0 9 16
+ 0.23312 0 1 tcp 1040 ------- 1 0.0 1.0 10 17
- 0.23312 0 1 tcp 1040 ------- 1 0.0 1.0 8 15
r 0.23728 1 0 ack 40 ------- 1 1.0 0.0 5 12
+ 0.23728 0 1 tcp 1040 ------- 1 0.0 1.0 11 18
+ 0.23728 0 1 tcp 1040 ------- 1 0.0 1.0 12 19
- 0.23728 0 1 tcp 1040 ------- 1 0.0 1.0 9 16
r 0.24144 1 0 ack 40 ------- 1 1.0 0.0 6 13
+ 0.24144 0 1 tcp 1040 ------- 1 0.0 1.0 13 20
+ 0.24144 0 1 tcp 1040 ------- 1 0.0 1.0 14 21
- 0.24144 0 1 tcp 1040 ------- 1 0.0 1.0 10 17
- 0.2456 0 1 tcp 1040 ------- 1 0.0 1.0 11 18
- 0.24976 0 1 tcp 1040 ------- 1 0.0 1.0 12 19
r 0.25312 0 1 tcp 1040 ------- 1 0.0 1.0 7 14
+ 0.25312 1 0 ack 40 ------- 1 1.0 0.0 7 22
- 0.25312 1 0 ack 40 ------- 1 1.0 0.0 7 22
- 0.25392 0 1 tcp 1040 ------- 1 0.0 1.0 13 20
r 0.25728 0 1 tcp 1040 ------- 1 0.0 1.0 8 15
+ 0.25728 1 0 ack 40 ------- 1 1.0 0.0 8 23
- 0.25728 1 0 ack 40 ------- 1 1.0 0.0 8 23
- 0.25808 0 1 tcp 1040 ------- 1 0.0 1.0 14 21
r 0.26144 0 1 tcp 1040 ------- 1 0.0 1.0 9 16
+ 0.26144 1 0 ack 40 ------- 1 1.0 0.0 9 24
- 0.26144 1 0 ack 40 ------- 1 1.0 0.0 9 24
r 0.2656 0 1 tcp 1040 ------- 1 0.0 1.0 10 17
+ 0.2656 1 0 ack 40 ------- 1 1.0 0.0 10 25
- 0.2656 1 0 ack 40 ------- 1 1.0 0.0 10 25
r 0.26976 0 1 tcp 1040 ------- 1 0.0 1.0 11 18
+ 0.26976 1 0 ack 40 ------- 1 1.0 0.0 11 26
- 0.26976 1 0 ack 40 ------- 1 1.0 0.0 11 26
r 0.27328 1 0 ack 40 ------- 1 1.0 0.0 7 22
+ 0.27328 0 1 tcp 1040 ------- 1 0.0 1.0 15 27
- 0.27328 0 1 tcp 1040 ------- 1 0.0 1.0 15 27
+ 0.27328 0 1 tcp 1040 ------- 1 0.0 1.0 16 28
r 0.27392 0 1 tcp 1040 ------- 1 0.0 1.0 12 19
+ 0.27392 1 0 ack 40 ------- 1 1.0 0.0 12 29
- 0.27392 1 0 ack 40 ------- 1 1.0 0.0 12 29
r 0.27744 1 0 ack 40 ------- 1 1.0 0.0 8 23
+ 0.27744 0 1 tcp 1040 ------- 1 0.0 1.0 17 30
+ 0.27744 0 1 tcp 1040 ------- 1 0.0 1.0 18 31
- 0.27744 0 1 tcp 1040 ------- 1 0.0 1.0 16 28
r 0.27808 0 1 tcp 1040 ------- 1 0.0 1.0 13 20
+ 0.27808 1 0 ack 40 ------- 1 1.0 0.0 13 32
- 0.27808 1 0 ack 40 ------- 1 1.0 0.0 13 32
r 0.2816 1 0 ack 40 ------- 1 1.0 0.0 9 24
+ 0.2816 0 1 tcp 1040 ------- 1 0.0 1.0 19 33
+ 0.2816 0 1 tcp 1040 ------- 1 0.0 1.0 20 34
- 0.2816 0 1 tcp 1040 ------- 1 0.0 1.0 17 30
r 0.28224 0 1 tcp 1040 ------- 1 0.0 1.0 14 21
+ 0.28224 1 0 ack 40 ------- 1 1.0 0.0 14 35
- 0.28224 1 0 ack 40 ------- 1 1.0 0.0 14 35
r 0.28576 1 0 ack 40 ------- 1 1.0 0.0 10 25
+ 0.28576 0 1 tcp 1040 ------- 1 0.0 1.0 21 36
+ 0.28576 0 1 tcp 1040 ------- 1 0.0 1.0 22 37
- 0.28576 0 1 tcp 1040 ------- 1 0.0 1.0 18 31
r 0.28992 1 0 ack 40 ------- 1 1.0 0.0 11 26
+ 0.28992 0 1 tcp 1040 ------- 1 0.0 1.0 23 38
+ 0.28992 0 1 tcp 1040 ------- 1 0.0 1.0 24 39
- 0.28992 0 1 tcp 1040 ------- 1 0.0 1.0 19 33
r 0.29408 1 0 ack 40 ------- 1 1.0 0.0 12 29
+ 0.29408 0 1 tcp 1040 ------- 1 0.0 1.0 25 40
+ 0.29408 0 1 tcp 1040 ------- 1 0.0 1.0 26 41
- 0.29408 0 1 tcp 1040 ------- 1 0.0 1.0 20 34
r 0.29744 0 1 tcp 1040 ------- 1 0.0 1.0 15 27
+ 0.29744 1 0 ack 40 ------- 1 1.0 0.0 15 42
- 0.29744 1 0 ack 40 ------- 1 1.0 0.0 15 42
r 0.29824 1 0 ack 40 ------- 1 1.0 0.0 13 32
+ 0.29824 0 1 tcp 1040 ------- 1 0.0 1.0 27 43
+ 0.29824 0 1 tcp 1040 ------- 1 0.0 1.0 28 44
- 0.29824 0 1 tcp 1040 ------- 1 0.0 1.0 21 36
r 0.3016 0 1 tcp 1040 ------- 1 0.0 1.0 16 28
+ 0.3016 1 0 ack 40 ------- 1 1.0 0.0 16 45
- 0.3016 1 0 ack 40 ------- 1 1.0 0.0 16 45
r 0.3024 1 0 ack 40 ------- 1 1.0 0.0 14 35
+ 0.3024 0 1 tcp 1040 ------- 1 0.0 1.0 29 46
+ 0.3024 0 1 tcp 1040 ------- 1 0.0 1.0 30 47
- 0.3024 0 1 tcp 1040 ------- 1 0.0 1.0 22 37
r 0.30576 0 1 tcp 1040 ------- 1 0.0 1.0 17 30
+ 0.30576 1 0 ack 40 ------- 1 1.0 0.0 17 48
- 0.30576 1 0 ack 40 ------- 1 1.0 0.0 17 48
- 0.30656 0 1 tcp 1040 ------- 1 0.0 1.0 23 38
r 0.30992 0 1 tcp 1040 ------- 1 0.0 1.0 18 31
+ 0.30992 1 0 ack 40 ------- 1 1.0 0.0 18 49
- 0.30992 1 0 ack 40 ------- 1 1.0 0.0 18 49
- 0.31072 0 1 tcp 1040 ------- 1 0.0 1.0 24 39
r 0.31408 0 1 tcp 1040 ------- 1 0.0 1.0 19 33
+ 0.31408 1 0 ack 40 ------- 1 1.0 0.0 19 50
- 0.31408 1 0 ack 40 ------- 1 1.0 0.0 19 50
- 0.31488 0 1 tcp 1040 ------- 1 0.0 1.0 25 40
r 0.3176 1 0 ack 40 ------- 1 1.0 0.0 15 42
+ 0.3176 0 1 tcp 1040 ------- 1 0.0 1.0 31 51
+ 0.3176 0 1 tcp 1040 ------- 1 0.0 1.0 32 52
r 0.31824 0 1 tcp 1040 ------- 1 0.0 1.0 20 34
+ 0.31824 1 0 ack 40 ------- 1 1.0 0.0 20 53
- 0.31824 1 0 ack 40 ------- 1 1.0 0.0 20 53
- 0.31904 0 1 tcp 1040 ------- 1 0.0 1.0 26 41
r 0.32176 1 0 ack 40 ------- 1 1.0 0.0 16 45
+ 0.32176 0 1 tcp 1040 ------- 1 0.0 1.0 33 54
+ 0.32176 0 1 tcp 1040 ------- 1 0.0 1.0 34 55
r 0.3224 0 1 tcp 1040 ------- 1 0.0 1.0 21 36
+ 0.3224 1 0 ack 40 ------- 1 1.0 0.0 21 56
- 0.3224 1 0 ack 40 ------- 1 1.0 0.0 21 56
- 0.3232 0 1 tcp 1040 ------- 1 0.0 1.0 27 43
r 0.32592 1 0 ack 40 ------- 1 1.0 0.0 17 48
+ 0.32592 0 1 tcp 1040 ------- 1 0.0 1.0 35 57
+ 0.32592 0 1 tcp 1040 ------- 1 0.0 1.0 36 58
r 0.32656 0 1 tcp 1040 ------- 1 0.0 1.0 22 37
+ 0.32656 1 0 ack 40 ------- 1 1.0 0.0 22 59
- 0.32656 1 0 ack 40 ------- 1 1.0 0.0 22 59
- 0.32736 0 1 tcp 1040 ------- 1 0.0 1.0 28 44
r 0.33008 1 0 ack 40 ------- 1 1.0 0.0 18 49
+ 0.33008 0 1 tcp 1040 ------- 1 0.0 1.0 37 60
+ 0.33008 0 1 tcp 1040 ------- 1 0.0 1.0 38 61
r 0.33072 0 1 tcp 1040 ------- 1 0.0 1.0 23 38
+ 0.33072 1 0 ack 40 ------- 1 1.0 0.0 23 62
- 0.33072 1 0 ack 40 ------- 1 1.0 0.0 23 62
- 0.33152 0 1 tcp 1040 ------- 1 0.0 1.0 29 46
r 0.33424 1 0 ack 40 ------- 1 1.0 0.0 19 50
+ 0.33424 0 1 tcp 1040 ------- 1 0.0 1.0 39 63
r 0.33488 0 1 tcp 1040 ------- 1 0.0 1.0 24 39
+ 0.33488 1 0 ack 40 ------- 1 1.0 0.0 24 64
- 0.33488 1 0 ack 40 ------- 1 1.0 0.0 24 64
- 0.33568 0 1 tcp 1040 ------- 1 0.0 1.0 30 47
r 0.3384 1 0 ack 40 ------- 1 1.0 0.0 20 53
+ 0.3384 0 1 tcp 1040 ------- 1 0.0 1.0 40 65
r 0.33904 0 1 tcp 1040 ------- 1 0.0 1.0 25 40
+ 0.33904 1 0 ack 40 ------- 1 1.0 0.0 25 66
- 0.33904 1 0 ack 40 ------- 1 1.0 0.0 25 66
- 0.33984 0 1 tcp 1040 ------- 1 0.0 1.0 31 51
r 0.34256 1 0 ack 40 ------- 1 1.0 0.0 21 56
+ 0.34256 0 1 tcp 1040 ------- 1 0.0 1.0 41 67
r 0.3432 0 1 tcp 1040 ------- 1 0.0 1.0 26 41
+ 0.3432 1 0 ack 40 ------- 1 1.0 0.0 26 68
- 0.3432 1 0 ack 40 ------- 1 1.0 0.0 26 68
- 0.344 0 1 tcp 1040 ------- 1 0.0 1.0 32 52
r 0.34672 1 0 ack 40 ------- 1 1.0 0.0 22 59
+ 0.34672 0 1 tcp 1040 ------- 1 0.0 1.0 42 69
r 0.34736 0 1 tcp 1040 ------- 1 0.0 1.0 27 43
+ 0.34736 1 0 ack 40 ------- 1 1.0 0.0 27 70
- 0.34736 1 0 ack 40 ------- 1 1.0 0.0 27 70
- 0.34816 0 1 tcp 1040 ------- 1 0.0 1.0 33 54
r 0.35088 1 0 ack 40 ------- 1 1.0 0.0 23 62
+ 0.35088 0 1 tcp 1040 ------- 1 0.0 1.0 43 71
r 0.35152 0 1 tcp 1040 ------- 1 0.0 1.0 28 44
+ 0.35152 1 0 ack 40 ------- 1 1.0 0.0 28 72
- 0.35152 1 0 ack 40 ------- 1 1.0 0.0 28 72
- 0.35232 0 1 tcp 1040 ------- 1 0.0 1.0 34 55
r 0.35504 1 0 ack 40 ------- 1 1.0 0.0 24 64
+ 0.35504 0 1 tcp 1040 ------- 1 0.0 1.0 44 73
r 0.35568 0 1 tcp 1040 ------- 1 0.0 1.0 29 46
+ 0.35568 1 0 ack 40 ------- 1 1.0 0.0 29 74
- 0.35568 1 0 ack 40 ------- 1 1.0 0.0 29 74
- 0.35648 0 1 tcp 1040 ------- 1 0.0 1.0 35 57
r 0.3592 1 0 ack 40 ------- 1 1.0 0.0 25 66
+ 0.3592 0 1 tcp 1040 ------- 1 0.0 1.0 45 75
r 0.35984 0 1 tcp 1040 ------- 1 0.0 1.0 30 47
+ 0.35984 1 0 ack 40 ------- 1 1.0 0.0 30 76
- 0.35984 1 0 ack 40 ------- 1 1.0 0.0 30 76
- 0.36064 0 1 tcp 1040 ------- 1 0.0 1.0 36 58
r 0.36336 1 0 ack 40 ------- 1 1.0 0.0 26 68
+ 0.36336 0 1 tcp 1040 ------- 1 0.0 1.0 46 77
r 0.364 0 1 tcp 1040 ------- 1 0.0 1.0 31 51
+ 0.364 1 0 ack 40 ------- 1 1.0 0.0 31 78
- 0.364 1 0 ack 40 ------- 1 1.0 0.0 31 78
- 0.3648 0 1 tcp 1040 ------- 1 0.0 1.0 37 60
r 0.36752 1 0 ack 40 ------- 1 1.0 0.0 27 70
+ 0.36752 0 1 tcp 1040 ------- 1 0.0 1.0 47 79
r 0.36816 0 1 tcp 1040 ------- 1 0.0 1.0 32 52
+ 0.36816 1 0 ack 40 ------- 1 1.0 0.0 32 80
- 0.36816 1 0 ack 40 ------- 1 1.0 0.0 32 80
- 0.36896 0 1 tcp 1040 ------- 1 0.0 1.0 38 61
r 0.37168 1 0 ack 40 ------- 1 1.0 0.0 28 72
+ 0.37168 0 1 tcp 1040 ------- 1 0.0 1.0 48 81
r 0.37232 0 1 tcp 1040 ------- 1 0.0 1.0 33 54
+ 0.37232 1 0 ack 40 ------- 1 1.0 0.0 33 82
- 0.37232 1 0 ack 40 ------- 1 1.0 0.0 33 82
- 0.37312 0 1 tcp 1040 ------- 1 0.0 1.0 39 63
r 0.37584 1 0 ack 40 ------- 1 1.0 0.0 29 74
+ 0.37584 0 1 tcp 1040 ------- 1 0.0 1.0 49 83
r 0.37648 0 1 tcp 1040 ------- 1 0.0 1.0 34 55
+ 0.37648 1 0 ack 40 ------- 1 1.0 0.0 34 84
- 0.37648 1 0 ack 40 ------- 1 1.0 0.0 34 84
- 0.37728 0 1 tcp 1040 ------- 1 0.0 1.0 40 65
r 0.38 1 0 ack 40 ------- 1 1.0 0.0 30 76
+ 0.38 0 1 tcp 1040 ------- 1 0.0 1.0 50 85
r 0.38064 0 1 tcp 1040 ------- 1 0.0 1.0 35 57
+ 0.38064 1 0 ack 40 ------- 1 1.0 0.0 35 86
- 0.38064 1 0 ack 40 ------- 1 1.0 0.0 35 86
- 0.38144 0 1 tcp 1040 ------- 1 0.0 1.0 41 67
r 0.38416 1 0 ack 40 ------- 1 1.0 0.0 31 78
+ 0.38416 0 1 tcp 1040 ------- 1 0.0 1.0 51 87
r 0.3848 0 1 tcp 1040 ------- 1 0.0 1.0 36 58
+ 0.3848 1 0 ack 40 ------- 1 1.0 0.0 36 88
- 0.3848 1 0 ack 40 ------- 1 1.0 0.0 36 88
- 0.3856 0 1 tcp 1040 ------- 1 0.0 1.0 42 69
r 0.38832 1 0 ack 40 ------- 1 1.0 0.0 32 80
+ 0.38832 0 1 tcp 1040 ------- 1 0.0 1.0 52 89
r 0.38896 0 1 tcp 1040 ------- 1 0.0 1.0 37 60
+ 0.38896 1 0 ack 40 ------- 1 1.0 0.0 37 90
- 0.38896 1 0 ack 40 ------- 1 1.0 0.0 37 90
- 0.38976 0 1 tcp 1040 ------- 1 0.0 1.0 43 71
r 0.39248 1 0 ack 40 ------- 1 1.0 0.0 33 82
+ 0.39248 0 1 tcp 1040 ------- 1 0.0 1.0 53 91
r 0.39312 0 1 tcp 1040 ------- 1 0.0 1.0 38 61
+ 0.39312 1 0 ack 40 ------- 1 1.0 0.0 38 92
- 0.39312 1 0 ack 40 ------- 1 1.0 0.0 38 92
- 0.39392 0 1 tcp 1040 ------- 1 0.0 1.0 44 73
r 0.39664 1 0 ack 40 ------- 1 1.0 0.0 34 84
+ 0.39664 0 1 tcp 1040 ------- 1 0.0 1.0 54 93
r 0.39728 0 1 tcp 1040 ------- 1 0.0 1.0 39 63
+ 0.39728 1 0 ack 40 ------- 1 1.0 0.0 39 94
- 0.39728 1 0 ack 40 ------- 1 1.0 0.0 39 94
- 0.39808 0 1 tcp 1040 ------- 1 0.0 1.0 45 75
r 0.4008 1 0 ack 40 ------- 1 1.0 0.0 35 86
+ 0.4008 0 1 tcp 1040 ------- 1 0.0 1.0 55 95
r 0.40144 0 1 tcp 1040 ------- 1 0.0 1.0 40 65
+ 0.40144 1 0 ack 40 ------- 1 1.0 0.0 40 96
- 0.40144 1 0 ack 40 ------- 1 1.0 0.0 40 96
- 0.40224 0 1 tcp 1040 ------- 1 0.0 1.0 46 77
r 0.40496 1 0 ack 40 ------- 1 1.0 0.0 36 88
+ 0.40496 0 1 tcp 1040 ------- 1 0.0 1.0 56 97
r 0.4056 0 1 tcp 1040 ------- 1 0.0 1.0 41 67
+ 0.4056 1 0 ack 40 ------- 1 1.0 0.0 41 98
- 0.4056 1 0 ack 40 ------- 1 1.0 0.0 41 98
- 0.4064 0 1 tcp 1040 ------- 1 0.0 1.0 47 79
r 0.40912 1 0 ack 40 ------- 1 1.0 0.0 37 90
+ 0.40912 0 1 tcp 1040 ------- 1 0.0 1.0 57 99
r 0.40976 0 1 tcp 1040 ------- 1 0.0 1.0 42 69
+ 0.40976 1 0 ack 40 ------- 1 1.0 0.0 42 100
- 0.40976 1 0 ack 40 ------- 1 1.0 0.0 42 100
- 0.41056 0 1 tcp 1040 ------- 1 0.0 1.0 48 81
r 0.41328 1 0 ack 40 ------- 1 1.0 0.0 38 92
+ 0.41328 0 1 tcp 1040 ------- 1 0.0 1.0 58 101
r 0.41392 0 1 tcp 1040 ------- 1 0.0 1.0 43 71
+ 0.41392 1 0 ack 40 ------- 1 1.0 0.0 43 102
- 0.41392 1 0 ack 40 ------- 1 1.0 0.0 43 102
- 0.41472 0 1 tcp 1040 ------- 1 0.0 1.0 49 83
r 0.41744 1 0 ack 40 ------- 1 1.0 0.0 39 94
+ 0.41744 0 1 tcp 1040 ------- 1 0.0 1.0 59 103
r 0.41808 0 1 tcp 1040 ------- 1 0.0 1.0 44 73
+ 0.41808 1 0 ack 40 ------- 1 1.0 0.0 44 104
- 0.41808 1 0 ack 40 ------- 1 1.0 0.0 44 104
- 0.41888 0 1 tcp 1040 ------- 1 0.0 1.0 50 85
r 0.4216 1 0 ack 40 ------- 1 1.0 0.0 40 96
+ 0.4216 0 1 tcp 1040 ------- 1 0.0 1.0 60 105
r 0.42224 0 1 tcp 1040 ------- 1 0.0 1.0 45 75
+ 0.42224 1 0 ack 40 ------- 1 1.0 0.0 45 106
- 0.42224 1 0 ack 40 ------- 1 1.0 0.0 45 106
- 0.42304 0 1 tcp 1040 ------- 1 0.0 1.0 51 87
r 0.42576 1 0 ack 40 ------- 1 1.0 0.0 41 98
+ 0.42576 0 1 tcp 1040 ------- 1 0.0 1.0 61 107
r 0.4264 0 1 tcp 1040 ------- 1 0.0 1.0 46 77
+ 0.4264 1 0 ack 40 ------- 1 1.0 0.0 46 108
- 0.4264 1 0 ack 40 ------- 1 1.0 0.0 46 108
- 0.4272 0 1 tcp 1040 ------- 1 0.0 1.0 52 89
r 0.42992 1 0 ack 40 ------- 1 1.0 0.0 42 100
+ 0.42992 0 1 tcp 1040 ------- 1 0.0 1.0 62 109
r 0.43056 0 1 tcp 1040 ------- 1 0.0 1.0 47 79
+ 0.43056 1 0 ack 40 ------- 1 1.0 0.0 47 110
- 0.43056 1 0 ack 40 ------- 1 1.0 0.0 47 110
- 0.43136 0 1 tcp 1040 ------- 1 0.0 1.0 53 91
r 0.43408 1 0 ack 40 ------- 1 1.0 0.0 43 102
+ 0.43408 0 1 tcp 1040 ------- 1 0.0 1.0 63 111
r 0.43472 0 1 tcp 1040 ------- 1 0.0 1.0 48 81
+ 0.43472 1 0 ack 40 ------- 1 1.0 0.0 48 112
- 0.43472 1 0 ack 40 ------- 1 1.0 0.0 48 112
- 0.43552 0 1 tcp 1040 ------- 1 0.0 1.0 54 93
r 0.43824 1 0 ack 40 ------- 1 1.0 0.0 44 104
+ 0.43824 0 1 tcp 1040 ------- 1 0.0 1.0 64 113
r 0.43888 0 1 tcp 1040 ------- 1 0.0 1.0 49 83
+ 0.43888 1 0 ack 40 ------- 1 1.0 0.0 49 114
- 0.43888 1 0 ack 40 ------- 1 1.0 0.0 49 114
- 0.43968 0 1 tcp 1040 ------- 1 0.0 1.0 55 95
r 0.4424 1 0 ack 40 ------- 1 1.0 0.0 45 106
+ 0.4424 0 1 tcp 1040 ------- 1 0.0 1.0 65 115
r 0.44304 0 1 tcp 1040 ------- 1 0.0 1.0 50 85
+ 0.44304 1 0 ack 40 ------- 1 1.0 0.0 50 116
- 0.44304 1 0 ack 40 ------- 1 1.0 0.0 50 116
- 0.44384 0 1 tcp 1040 ------- 1 0.0 1.0 56 97
r 0.44656 1 0 ack 40 ------- 1 1.0 0.0 46 108
+ 0.44656 0 1 tcp 1040 ------- 1 0.0 1.0 66 117
r 0.4472 0 1 tcp 1040 ------- 1 0.0 1.0 51 87
+ 0.4472 1 0 ack 40 ------- 1 1.0 0.0 51 118
- 0.4472 1 0 ack 40 ------- 1 1.0 0.0 51 118
- 0.448 0 1 tcp 1040 ------- 1 0.0 1.0 57 99
r 0.45072 1 0 ack 40 ------- 1 1.0 0.0 47 110
+ 0.45072 0 1 tcp 1040 ------- 1 0.0 1.0 67 119
r 0.45136 0 1 tcp 1040 ------- 1 0.0 1.0 52 89
+ 0.45136 1 0 ack 40 ------- 1 1.0 0.0 52 120
- 0.45136 1 0 ack 40 ------- 1 1.0 0.0 52 120
- 0.45216 0 1 tcp 1040 ------- 1 0.0 1.0 58 101
r 0.45488 1 0 ack 40 ------- 1 1.0 0.0 48 112
+ 0.45488 0 1 tcp 1040 ------- 1 0.0 1.0 68 121
r 0.45552 0 1 tcp 1040 ------- 1 0.0 1.0 53 91
+ 0.45552 1 0 ack 40 ------- 1 1.0 0.0 53 122
- 0.45552 1 0 ack 40 ------- 1 1.0 0.0 53 122
- 0.45632 0 1 tcp 1040 ------- 1 0.0 1.0 59 103
r 0.45904 1 0 ack 40 ------- 1 1.0 0.0 49 114
+ 0.45904 0 1 tcp 1040 ------- 1 0.0 1.0 69 123
r 0.45968 0 1 tcp 1040 ------- 1 0.0 1.0 54 93
+ 0.45968 1 0 ack 40 ------- 1 1.0 0.0 54 124
- 0.45968 1 0 ack 40 ------- 1 1.0 0.0 54 124
- 0.46048 0 1 tcp 1040 ------- 1 0.0 1.0 60 105
r 0.4632 1 0 ack 40 ------- 1 1.0 0.0 50 116
+ 0.4632 0 1 tcp 1040 ------- 1 0.0 1.0 70 125
r 0.46384 0 1 tcp 1040 ------- 1 0.0 1.0 55 95
+ 0.46384 1 0 ack 40 ------- 1 1.0 0.0 55 126
- 0.46384 1 0 ack 40 ------- 1 1.0 0.0 55 126
- 0.46464 0 1 tcp 1040 ------- 1 0.0 1.0 61 107
r 0.46736 1 0 ack 40 ------- 1 1.0 0.0 51 118
+ 0.46736 0 1 tcp 1040 ------- 1 0.0 1.0 71 127
r 0.468 0 1 tcp 1040 ------- 1 0.0 1.0 56 97
+ 0.468 1 0 ack 40 ------- 1 1.0 0.0 56 128
- 0.468 1 0 ack 40 ------- 1 1.0 0.0 56 128
- 0.4688 0 1 tcp 1040 ------- 1 0.0 1.0 62 109
r 0.47152 1 0 ack 40 ------- 1 1.0 0.0 52 120
+ 0.47152 0 1 tcp 1040 ------- 1 0.0 1.0 72 129
r 0.47216 0 1 tcp 1040 ------- 1 0.0 1.0 57 99
+ 0.47216 1 0 ack 40 ------- 1 1.0 0.0 57 130
- 0.47216 1 0 ack 40 ------- 1 1.0 0.0 57 130
- 0.47296 0 1 tcp 1040 ------- 1 0.0 1.0 63 111
r 0.47568 1 0 ack 40 ------- 1 1.0 0.0 53 122
+ 0.47568 0 1 tcp 1040 ------- 1 0.0 1.0 73 131
r 0.47632 0 1 tcp 1040 ------- 1 0.0 1.0 58 101
+ 0.47632 1 0 ack 40 ------- 1 1.0 0.0 58 132
- 0.47632 1 0 ack 40 ------- 1 1.0 0.0 58 132
- 0.47712 0 1 tcp 1040 ------- 1 0.0 1.0 64 113
r 0.47984 1 0 ack 40 ------- 1 1.0 0.0 54 124
+ 0.47984 0 1 tcp 1040 ------- 1 0.0 1.0 74 133
r 0.48048 0 1 tcp 1040 ------- 1 0.0 1.0 59 103
+ 0.48048 1 0 ack 40 ------- 1 1.0 0.0 59 134
- 0.48048 1 0 ack 40 ------- 1 1.0 0.0 59 134
- 0.48128 0 1 tcp 1040 ------- 1 0.0 1.0 65 115
r 0.484 1 0 ack 40 ------- 1 1.0 0.0 55 126
+ 0.484 0 1 tcp 1040 ------- 1 0.0 1.0 75 135
r 0.48464 0 1 tcp 1040 ------- 1 0.0 1.0 60 105
+ 0.48464 1 0 ack 40 ------- 1 1.0 0.0 60 136
- 0.48464 1 0 ack 40 ------- 1 1.0 0.0 60 136
- 0.48544 0 1 tcp 1040 ------- 1 0.0 1.0 66 117
r 0.48816 1 0 ack 40 ------- 1 1.0 0.0 56 128
+ 0.48816 0 1 tcp 1040 ------- 1 0.0 1.0 76 137
r 0.4888 0 1 tcp 1040 ------- 1 0.0 1.0 61 107
+ 0.4888 1 0 ack 40 ------- 1 1.0 0.0 61 138
- 0.4888 1 0 ack 40 ------- 1 1.0 0.0 61 138
- 0.4896 0 1 tcp 1040 ------- 1 0.0 1.0 67 119
r 0.49232 1 0 ack 40 ------- 1 1.0 0.0 57 130
+ 0.49232 0 1 tcp 1040 ------- 1 0.0 1.0 77 139
r 0.49296 0 1 tcp 1040 ------- 1 0.0 1.0 62 109
+ 0.49296 1 0 ack 40 ------- 1 1.0 0.0 62 140
- 0.49296 1 0 ack 40 ------- 1 1.0 0.0 62 140
- 0.49376 0 1 tcp 1040 ------- 1 0.0 1.0 68 121
r 0.49648 1 0 ack 40 ------- 1 1.0 0.0 58 132
+ 0.49648 0 1 tcp 1040 ------- 1 0.0 1.0 78 141
r 0.49712 0 1 tcp 1040 ------- 1 0.0 1.0 63 111
+ 0.49712 1 0 ack 40 ------- 1 1.0 0.0 63 142
- 0.49712 1 0 ack 40 ------- 1 1.0 0.0 63 142
- 0.49792 0 1 tcp 1040 ------- 1 0.0 1.0 69 123
+ 0.5 2 3 tcp 40 ------- 2 2.0 3.0 0 143
- 0.5 2 3 tcp 40 ------- 2 2.0 3.0 0 143
r 0.50064 1 0 ack 40 ------- 1 1.0 0.0 59 134
+ 0.50064 0 1 tcp 1040 ------- 1 0.0 1.0 79 144
r 0.50128 0 1 tcp 1040 ------- 1 0.0 1.0 64 113
+ 0.50128 1 0 ack 40 ------- 1 1.0 0.0 64 145
- 0.50128 1 0 ack 40 ------- 1 1.0 0.0 64 145
- 0.50208 0 1 tcp 1040 ------- 1 0.0 1.0 70 125
r 0.5048 1 0 ack 40 ------- 1 1.0 0.0 60 136
+ 0.5048 0 1 tcp 1040 ------- 1 0.0 1.0 80 146
r 0.50544 0 1 tcp 1040 ------- 1 0.0 1.0 65 115
+ 0.50544 1 0 ack 40 ------- 1 1.0 0.0 65 147
- 0.50544 1 0 ack 40 ------- 1 1.0 0.0 65 147
- 0.50624 0 1 tcp 1040 ------- 1 0.0 1.0 71 127
r 0.50896 1 0 ack 40 ------- 1 1.0 0.0 61 138
+ 0.50896 0 1 tcp 1040 ------- 1 0.0 1.0 81 148
r 0.5096 0 1 tcp 1040 ------- 1 0.0 1.0 66 117
+ 0.5096 1 0 ack 40 ------- 1 1.0 0.0 66 149
- 0.5096 1 0 ack 40 ------- 1 1.0 0.0 66 149
r 0.51032 2 3 tcp 40 ------- 2 2.0 3.0 0 143
+ 0.51032 3 2 ack 40 ------- 2 3.0 2.0 0 150
- 0.51032 3 2 ack 40 ------- 2 3.0 2.0 0 150
- 0.5104 0 1 tcp 1040 ------- 1 0.0 1.0 72 129
r 0.51312 1 0 ack 40 ------- 1 1.0 0.0 62 140
+ 0.51312 0 1 tcp 1040 ------- 1 0.0 1.0 82 151
r 0.51376 0 1 tcp 1040 ------- 1 0.0 1.0 67 119
+ 0.51376 1 0 ack 40 ------- 1 1.0 0.0 67 152
- 0.51376 1 0 ack 40 ------- 1 1.0 0.0 67 152
- 0.51456 0 1 tcp 1040 ------- 1 0.0 1.0 73 131
r 0.51728 1 0 ack 40 ------- 1 1.0 0.0 63 142
+ 0.51728 0 1 tcp 1040 ------- 1 0.0 1.0 83 153
r 0.51792 0 1 tcp 1040 ------- 1 0.0 1.0 68 121
+ 0.51792 1 0 ack 40 ------- 1 1.0 0.0 68 154
- 0.51792 1 0 ack 40 ------- 1 1.0 0.0 68 154
- 0.51872 0 1 tcp 1040 ------- 1 0.0 1.0 74 133
r 0.52064 3 2 ack 40 ------- 2 3.0 2.0 0 150
+ 0.52064 2 3 tcp 1040 ------- 2 2.0 3.0 1 155
- 0.52064 2 3 tcp 1040 ------- 2 2.0 3.0 1 155
+ 0.52064 2 3 tcp 1040 ------- 2 2.0 3.0 2 156
r 0.52144 1 0 ack 40 ------- 1 1.0 0.0 64 145
+ 0.52144 0 1 tcp 1040 ------- 1 0.0 1.0 84 157
r 0.52208 0 1 tcp 1040 ------- 1 0.0 1.0 69 123
+ 0.52208 1 0 ack 40 ------- 1 1.0 0.0 69 158
- 0.52208 1 0 ack 40 ------- 1 1.0 0.0 69 158
- 0.52288 0 1 tcp 1040 ------- 1 0.0 1.0 75 135
r 0.5256 1 0 ack 40 ------- 1 1.0 0.0 65 147
+ 0.5256 0 1 tcp 1040 ------- 1 0.0 1.0 85 159
r 0.52624 0 1 tcp 1040 ------- 1 0.0 1.0 70 125
+ 0.52624 1 0 ack 40 ------- 1 1.0 0.0 70 160
- 0.52624 1 0 ack 40 ------- 1 1.0 0.0 70 160
- 0.52704 0 1 tcp 1040 ------- 1 0.0 1.0 76 137
- 0.52896 2 3 tcp 1040 ------- 2 2.0 3.0 2 156
r 0.52976 1 0 ack 40 ------- 1 1.0 0.0 66 149
+ 0.52976 0 1 tcp 1040 ------- 1 0.0 1.0 86 161
r 0.5304 0 1 tcp 1040 ------- 1 0.0 1.0 71 127
+ 0.5304 1 0 ack 40 ------- 1 1.0 0.0 71 162
- 0.5304 1 0 ack 40 ------- 1 1.0 0.0 71 162
- 0.5312 0 1 tcp 1040 ------- 1 0.0 1.0 77 139
r 0.53392 1 0 ack 40 ------- 1 1.0 0.0 67 152
+ 0.53392 0 1 tcp 1040 ------- 1 0.0 1.0 87 163
r 0.53456 0 1 tcp 1040 ------- 1 0.0 1.0 72 129
+ 0.53456 1 0 ack 40 ------- 1 1.0 0.0 72 164
- 0.53456 1 0 ack 40 ------- 1 1.0 0.0 72 164
- 0.53536 0 1 tcp 1040 ------- 1 0.0 1.0 78 141
r 0.53808 1 0 ack 40 ------- 1 1.0 0.0 68 154
+ 0.53808 0 1 tcp 1040 ------- 1 0.0 1.0 88 165
r 0.53872 0 1 tcp 1040 ------- 1 0.0 1.0 73 131
+ 0.53872 1 0 ack 40 ------- 1 1.0 0.0 73 166
- 0.53872 1 0 ack 40 ------- 1 1.0 0.0 73 166
r 0.53896 2 3 tcp 1040 ------- 2 2.0 3.0 1 155
+ 0.53896 3 2 ack 40 ------- 2 3.0 2.0 1 167
- 0.53896 3 2 ack 40 ------- 2 3.0 2.0 1 167
- 0.53952 0 1 tcp 1040 ------- 1 0.0 1.0 79 144
r 0.54224 1 0 ack 40 ------- 1 1.0 0.0 69 158
+ 0.54224 0 1 tcp 1040 ------- 1 0.0 1.0 89 168
r 0.54288 0 1 tcp 1040 ------- 1 0.0 1.0 74 133
+ 0.54288 1 0 ack 40 ------- 1 1.0 0.0 74 169
- 0.54288 1 0 ack 40 ------- 1 1.0 0.0 74 169
- 0.54368 0 1 tcp 1040 ------- 1 0.0 1.0 80 146
r 0.5464 1 0 ack 40 ------- 1 1.0 0.0 70 160
+ 0.5464 0 1 tcp 1040 ------- 1 0.0 1.0 90 170
r 0.54704 0 1 tcp 1040 ------- 1 0.0 1.0 75 135
+ 0.54704 1 0 ack 40 ------- 1 1.0 0.0 75 171
- 0.54704 1 0 ack 40 ------- 1 1.0 0.0 75 171
r 0.54728 2 3 tcp 1040 ------- 2 2.0 3.0 2 156
+ 0.54728 3 2 ack 40 ------- 2 3.0 2.0 2 172
- 0.54728 3 2 ack 40 ------- 2 3.0 2.0 2 172
- 0.54784 0 1 tcp 1040 ------- 1 0.0 1.0 81 148
r 0.54928 3 2 ack 40 ------- 2 3.0 2.0 1 167
+ 0.54928 2 3 tcp 1040 ------- 2 2.0 3.0 3 173
- 0.54928 2 3 tcp 1040 ------- 2 2.0 3.0 3 173
+ 0.54928 2 3 tcp 1040 ------- 2 2.0 3.0 4 174
r 0.55056 1 0 ack 40 ------- 1 1.0 0.0 71 162
+ 0.55056 0 1 tcp 1040 ------- 1 0.0 1.0 91 175
r 0.5512 0 1 tcp 1040 ------- 1 0.0 1.0 76 137
+ 0.5512 1 0 ack 40 ------- 1 1.0 0.0 76 176
- 0.5512 1 0 ack 40 ------- 1 1.0 0.0 76 176
- 0.552 0 1 tcp 1040 ------- 1 0.0 1.0 82 151
r 0.55472 1 0 ack 40 ------- 1 1.0 0.0 72 164
+ 0.55472 0 1 tcp 1040 ------- 1 0.0 1.0 92 177
r 0.55536 0 1 tcp 1040 ------- 1 0.0 1.0 77 139
+ 0.55536 1 0 ack 40 ------- 1 1.0 0.0 77 178
- 0.55536 1 0 ack 40 ------- 1 1.0 0.0 77 178
- 0.55616 0 1 tcp 1040 ------- 1 0.0 1.0 83 153
r 0.5576 3 2 ack 40 ------- 2 3.0 2.0 2 172
+ 0.5576 2 3 tcp 1040 ------- 2 2.0 3.0 5 179
+ 0.5576 2 3 tcp 1040 ------- 2 2.0 3.0 6 180
- 0.5576 2 3 tcp 1040 ------- 2 2.0 3.0 4 174
r 0.55888 1 0 ack 40 ------- 1 1.0 0.0 73 166
+ 0.55888 0 1 tcp 1040 ------- 1 0.0 1.0 93 181
r 0.55952 0 1 tcp 1040 ------- 1 0.0 1.0 78 141
+ 0.55952 1 0 ack 40 ------- 1 1.0 0.0 78 182
- 0.55952 1 0 ack 40 ------- 1 1.0 0.0 78 182
- 0.56032 0 1 tcp 1040 ------- 1 0.0 1.0 84 157
r 0.56304 1 0 ack 40 ------- 1 1.0 0.0 74 169
+ 0.56304 0 1 tcp 1040 ------- 1 0.0 1.0 94 183
r 0.56368 0 1 tcp 1040 ------- 1 0.0 1.0 79 144
+ 0.56368 1 0 ack 40 ------- 1 1.0 0.0 79 184
- 0.56368 1 0 ack 40 ------- 1 1.0 0.0 79 184
- 0.56448 0 1 tcp 1040 ------- 1 0.0 1.0 85 159
- 0.56592 2 3 tcp 1040 ------- 2 2.0 3.0 5 179
r 0.5672 1 0 ack 40 ------- 1 1.0 0.0 75 171
+ 0.5672 0 1 tcp 1040 ------- 1 0.0 1.0 95 185
r 0.5676 2 3 tcp 1040 ------- 2 2.0 3.0 3 173
+ 0.5676 3 2 ack 40 ------- 2 3.0 2.0 3 186
- 0.5676 3 2 ack 40 ------- 2 3.0 2.0 3 186
r 0.56784 0 1 tcp 1040 ------- 1 0.0 1.0 80 146
+ 0.56784 1 0 ack 40 ------- 1 1.0 0.0 80 187
- 0.56784 1 0 ack 40 ------- 1 1.0 0.0 80 187
- 0.56864 0 1 tcp 1040 ------- 1 0.0 1.0 86 161
r 0.57136 1 0 ack 40 ------- 1 1.0 0.0 76 176
+ 0.57136 0 1 tcp 1040 ------- 1 0.0 1.0 96 188
r 0.572 0 1 tcp 1040 ------- 1 0.0 1.0 81 148
+ 0.572 1 0 ack 40 ------- 1 1.0 0.0 81 189
- 0.572 1 0 ack 40 ------- 1 1.0 0.0 81 189
- 0.5728 0 1 tcp 1040 ------- 1 0.0 1.0 87 163
- 0.57424 2 3 tcp 1040 ------- 2 2.0 3.0 6 180
r 0.57552 1 0 ack 40 ------- 1 1.0 0.0 77 178
+ 0.57552 0 1 tcp 1040 ------- 1 0.0 1.0 97 190
r 0.57592 2 3 tcp 1040 ------- 2 2.0 3.0 4 174
+ 0.57592 3 2 ack 40 ------- 2 3.0 2.0 4 191
- 0.57592 3 2 ack 40 ------- 2 3.0 2.0 4 191
r 0.57616 0 1 tcp 1040 ------- 1 0.0 1.0 82 151
+ 0.57616 1 0 ack 40 ------- 1 1.0 0.0 82 192
- 0.57616 1 0 ack 40 ------- 1 1.0 0.0 82 192
- 0.57696 0 1 tcp 1040 ------- 1 0.0 1.0 88 165
r 0.57792 3 2 ack 40 ------- 2 3.0 2.0 3 186
+ 0.57792 2 3 tcp 1040 ------- 2 2.0 3.0 7 193
+ 0.57792 2 3 tcp 1040 ------- 2 2.0 3.0 8 194
r 0.57968 1 0 ack 40 ------- 1 1.0 0.0 78 182
+ 0.57968 0 1 tcp 1040 ------- 1 0.0 1.0 98 195
r 0.58032 0 1 tcp 1040 ------- 1 0.0 1.0 83 153
+ 0.58032 1 0 ack 40 ------- 1 1.0 0.0 83 196
- 0.58032 1 0 ack 40 ------- 1 1.0 0.0 83 196
- 0.58112 0 1 tcp 1040 ------- 1 0.0 1.0 89 168
- 0.58256 2 3 tcp 1040 ------- 2 2.0 3.0 7 193
r 0.58384 1 0 ack 40 ------- 1 1.0 0.0 79 184
+ 0.58384 0 1 tcp 1040 ------- 1 0.0 1.0 99 197
r 0.58424 2 3 tcp 1040 ------- 2 2.0 3.0 5 179
+ 0.58424 3 2 ack 40 ------- 2 3.0 2.0 5 198
- 0.58424 3 2 ack 40 ------- 2 3.0 2.0 5 198
r 0.58448 0 1 tcp 1040 ------- 1 0.0 1.0 84 157
+ 0.58448 1 0 ack 40 ------- 1 1.0 0.0 84 199
- 0.58448 1 0 ack 40 ------- 1 1.0 0.0 84 199
- 0.58528 0 1 tcp 1040 ------- 1 0.0 1.0 90 170
r 0.58624 3 2 ack 40 ------- 2 3.0 2.0 4 191
+ 0.58624 2 3 tcp 1040 ------- 2 2.0 3.0 9 200
+ 0.58624 2 3 tcp 1040 ------- 2 2.0 3.0 10 201
r 0.588 1 0 ack 40 ------- 1 1.0 0.0 80 187
+ 0.588 0 1 tcp 1040 ------- 1 0.0 1.0 100 202
r 0.58864 0 1 tcp 1040 ------- 1 0.0 1.0 85 159
+ 0.58864 1 0 ack 40 ------- 1 1.0 0.0 85 203
- 0.58864 1 0 ack 40 ------- 1 1.0 0.0 85 203
- 0.58944 0 1 tcp 1040 ------- 1 0.0 1.0 91 175
- 0.59088 2 3 tcp 1040 ------- 2 2.0 3.0 8 194
r 0.59216 1 0 ack 40 ------- 1 1.0 0.0 81 189
+ 0.59216 0 1 tcp 1040 ------- 1 0.0 1.0 101 204
r 0.59256 2 3 tcp 1040 ------- 2 2.0 3.0 6 180
+ 0.59256 3 2 ack 40 ------- 2 3.0 2.0 6 205
- 0.59256 3 2 ack 40 ------- 2 3.0 2.0 6 205
r 0.5928 0 1 tcp 1040 ------- 1 0.0 1.0 86 161
+ 0.5928 1 0 ack 40 ------- 1 1.0 0.0 86 206
- 0.5928 1 0 ack 40 ------- 1 1.0 0.0 86 206
- 0.5936 0 1 tcp 1040 ------- 1 0.0 1.0 92 177
r 0.59456 3 2 ack 40 ------- 2 3.0 2.0 5 198
+ 0.59456 2 3 tcp 1040 ------- 2 2.0 3.0 11 207
+ 0.59456 2 3 tcp 1040 ------- 2 2.0 3.0 12 208
r 0.59632 1 0 ack 40 ------- 1 1.0 0.0 82 192
+ 0.59632 0 1 tcp 1040 ------- 1 0.0 1.0 102 209
r 0.59696 0 1 tcp 1040 ------- 1 0.0 1.0 87 163
+ 0.59696 1 0 ack 40 ------- 1 1.0 0.0 87 210
- 0.59696 1 0 ack 40 ------- 1 1.0 0.0 87 210
- 0.59776 0 1 tcp 1040 ------- 1 0.0 1.0 93 181
- 0.5992 2 3 tcp 1040 ------- 2 2.0 3.0 9 200
r 0.60048 1 0 ack 40 ------- 1 1.0 0.0 83 196
+ 0.60048 0 1 tcp 1040 ------- 1 0.0 1.0 103 211
r 0.60088 2 3 tcp 1040 ------- 2 2.0 3.0 7 193
+ 0.60088 3 2 ack 40 ------- 2 3.0 2.0 7 212
- 0.60088 3 2 ack 40 ------- 2 3.0 2.0 7 212
r 0.60112 0 1 tcp 1040 ------- 1 0.0 1.0 88 165
+ 0.60112 1 0 ack 40 ------- 1 1.0 0.0 88 213
- 0.60112 1 0 ack 40 ------- 1 1.0 0.0 88 213
- 0.60192 0 1 tcp 1040 ------- 1 0.0 1.0 94 183
r 0.60288 3 2 ack 40 ------- 2 3.0 2.0 6 205
+ 0.60288 2 3 tcp 1040 ------- 2 2.0 3.0 13 214
+ 0.60288 2 3 tcp 1040 ------- 2 2.0 3.0 14 215
r 0.60464 1 0 ack 40 ------- 1 1.0 0.0 84 199
+ 0.60464 0 1 tcp 1040 ------- 1 0.0 1.0 104 216
r 0.60528 0 1 tcp 1040 ------- 1 0.0 1.0 89 168
+ 0.60528 1 0 ack 40 ------- 1 1.0 0.0 89 217
- 0.60528 1 0 ack 40 ------- 1 1.0 0.0 89 217
- 0.60608 0 1 tcp 1040 ------- 1 0.0 1.0 95 185
- 0.60752 2 3 tcp 1040 ------- 2 2.0 3.0 10 201
r 0.6088 1 0 ack 40 ------- 1 1.0 0.0 85 203
+ 0.6088 0 1 tcp 1040 ------- 1 0.0 1.0 105 218
r 0.6092 2 3 tcp 1040 ------- 2 2.0 3.0 8 194
+ 0.6092 3 2 ack 40 ------- 2 3.0 2.0 8 219
- 0.6092 3 2 ack 40 ------- 2 3.0 2.0 8 219
r 0.60944 0 1 tcp 1040 ------- 1 0.0 1.0 90 170
+ 0.60944 1 0 ack 40 ------- 1 1.0 0.0 90 220
- 0.60944 1 0 ack 40 ------- 1 1.0 0.0 90 220
- 0.61024 0 1 tcp 1040 ------- 1 0.0 1.0 96 188
r 0.6112 3 2 ack 40 ------- 2 3.0 2.0 7 212
+ 0.6112 2 3 tcp 1040 ------- 2 2.0 3.0 15 221
+ 0.6112 2 3 tcp 1040 ------- 2 2.0 3.0 16 222
r 0.61296 1 0 ack 40 ------- 1 1.0 0.0 86 206
+ 0.61296 0 1 tcp 1040 ------- 1 0.0 1.0 106 223
r 0.6136 0 1 tcp 1040 ------- 1 0.0 1.0 91 175
+ 0.6136 1 0 ack 40 ------- 1 1.0 0.0 91 224
- 0.6136 1 0 ack 40 ------- 1 1.0 0.0 91 224
- 0.6144 0 1 tcp 1040 ------- 1 0.0 1.0 97 190
- 0.61584 2 3 tcp 1040 ------- 2 2.0 3.0 11 207
r 0.61712 1 0 ack 40 ------- 1 1.0 0.0 87 210
+ 0.61712 0 1 tcp 1040 ------- 1 0.0 1.0 107 225
r 0.61752 2 3 tcp 1040 ------- 2 2.0 3.0 9 200
+ 0.61752 3 2 ack 40 ------- 2 3.0 2.0 9 226
- 0.61752 3 2 ack 40 ------- 2 3.0 2.0 9 226
r 0.61776 0 1 tcp 1040 ------- 1 0.0 1.0 92 177
+ 0.61776 1 0 ack 40 ------- 1 1.0 0.0 92 227
- 0.61776 1 0 ack 40 ------- 1 1.0 0.0 92 227
- 0.61856 0 1 tcp 1040 ------- 1 0.0 1.0 98 195
r 0.61952 3 2 ack 40 ------- 2 3.0 2.0 8 219
+ 0.61952 2 3 tcp 1040 ------- 2 2.0 3.0 17 228
+ 0.61952 2 3 tcp 1040 ------- 2 2.0 3.0 18 229
r 0.62128 1 0 ack 40 ------- 1 1.0 0.0 88 213
+ 0.62128 0 1 tcp 1040 ------- 1 0.0 1.0 108 230
r 0.62192 0 1 tcp 1040 ------- 1 0.0 1.0 93 181
+ 0.62192 1 0 ack 40 ------- 1 1.0 0.0 93 231
- 0.62192 1 0 ack 40 ------- 1 1.0 0.0 93 231
- 0.62272 0 1 tcp 1040 ------- 1 0.0 1.0 99 197